ITEM: TIMESTEP
0
ITEM: NUMBER OF ATOMS
100
ITEM: BOX BOUNDS ff ff pp
0.0000000000000000e+00 2.0000000000000000e+02
0.0000000000000000e+00 2.0000000000000000e+02
-5.0000000000000000e-01 5.0000000000000000e-01
ITEM: ATOMS id type x y vx vy fx fy v_dist
24 1 9.30586 3.51568 816.247 868.359 -7164.48 -8755.84 132.418
49 1 185.03 5.17366 -765.273 853.437 7489.48 -8090.39 127.366
81 1 13.0546 9.18486 782.508 817.336 -8855.56 -7809.79 125.725
64 1 56.12 8.36987 394.92 824.671 -4441.65 -8976.94 101.595
87 1 23.5027 9.8796 688.476 811.084 -5325.45 -7235.38 118.21
60 1 139.145 10.8285 -352.305 802.544 4553.51 -6561.19 97.3853
100 1 131.862 11.9731 -286.762 792.242 3266.49 -6226.06 93.616
59 1 147.023 12.1688 -423.205 790.481 4790.85 -6220.44 99.6266
75 1 127.983 12.8637 -251.848 784.226 2501.17 -8071.35 91.5193
15 1 114.965 15.2643 -134.684 762.622 2924.41 -8987.81 86.0471
84 1 38.2826 16.4544 555.456 751.91 -6951.34 -6445.63 103.87
30 1 83.4901 18.9103 148.589 729.808 -912.241 -6466.96 82.7534
12 1 92.3317 19.3746 69.0144 725.629 222.416 -5691.84 80.9893
13 1 110.788 19.5175 -97.095 724.343 1339.67 -8344.47 81.2024
45 1 31.869 22.1128 613.179 700.985 -6068.55 -7946.16 103.481
48 1 55.9423 22.0622 396.519 701.441 -5143.9 -8395.22 89.5287
44 1 16.685 25.0764 749.835 674.313 -7893.86 -6138.95 112.049
41 1 0.525224 27.4448 895.273 652.996 -9753.85 -5138.56 123.124
97 1 174.536 31.8613 -670.827 613.248 7927.05 -4776.32 100.988
5 1 48.5295 35.5566 463.234 579.991 -3657.77 -6863.47 82.4752
10 1 113.372 34.803 -120.344 586.773 400.014 -7523.41 66.5541
98 1 134.113 35.0704 -307.016 584.366 4120.35 -5620.12 73.3453
17 1 178.713 35.0259 -708.42 584.767 5694.16 -6305.74 102.066
74 1 79.9334 40.9954 180.599 531.041 -1305.98 -5835.59 62.3234
58 1 113.384 40.7601 -120.454 533.159 1525.3 -5362.01 60.7329
86 1 117.358 42.0353 -156.225 521.683 3024.31 -5526.02 60.508
35 1 177.262 43.8018 -695.359 505.784 7314.16 -4951.89 95.5388
14 1 86.4667 45.817 121.8 487.647 -766.56 -6035.75 55.8475
69 1 19.0188 49.4601 728.831 454.859 -6973.2 -4299.04 95.458
22 1 72.7708 59.4353 245.062 365.083 -3513.22 -4682.8 48.8562
36 1 93.8574 60.6092 55.2838 354.517 -1796.05 -4052.49 39.8669
20 1 42.2242 61.5032 519.983 346.471 -3928.68 -2961.67 69.4266
99 1 194.72 61.728 -852.481 344.448 8582.18 -3209.03 102.16
89 1 82.0648 62.5865 161.417 336.722 -2594.75 -2334.19 41.4903
46 1 144.86 62.8848 -403.74 334.037 2806.87 -1830.25 58.2234
8 1 119.728 65.0768 -177.55 314.309 189.852 -3776.58 40.1101
1 1 182.13 66.96 -739.174 297.36 6340.76 -3463.46 88.5272
11 1 188.485 67.0271 -796.365 296.756 9223.44 -3124.2 94.4288
28 1 134.555 67.5213 -310.996 292.308 3091.17 -4632.96 47.4228
70 1 169.053 69.1599 -621.475 277.561 5823.42 -4457.18 75.6267
72 1 159.855 78.2595 -538.692 195.664 4344.12 -1655.6 63.6807
16 1 116.742 79.506 -150.676 184.446 1946.81 -2660.07 26.463
67 1 33.6694 82.4142 596.975 158.272 -7583.68 -1641.72 68.6222
77 1 82.221 88.7576 160.011 101.182 -2302.6 -1019.69 21.0353
23 1 27.4225 89.7688 653.198 92.0807 -6589.35 -110.134 73.2951
25 1 127.345 91.101 -246.107 80.0909 3549.54 266.034 28.7568
93 1 67.8585 97.2424 289.274 24.8184 -3720.4 470.012 32.2596
62 1 0.660416 99.612 894.056 3.49179 -9498.29 574.904 99.3403
7 1 120.908 99.7606 -188.171 2.15503 1221.56 -1148.63 20.9093
39 1 134.843 100.098 -313.584 -0.879503 4013.95 1306.55 34.8428
9 1 25.2339 106.278 672.895 -56.5004 -6513.01 1667.47 75.0292
80 1 42.8813 105.69 514.068 -51.2142 -5149.39 664.996 57.4015
6 1 61.445 106.119 346.995 -55.0709 -3547.36 1319.43 39.0375
82 1 103.725 107.242 -33.5256 -65.1783 -843.289 330.616 8.1439
21 1 158.155 108.601 -523.394 -77.4088 5825.9 -761.223 58.7874
51 1 104.094 114.11 -36.8493 -126.991 -799.248 2083.32 14.6921
83 1 93.9559 117.63 54.3965 -158.67 -1519.47 3241.8 18.6373
43 1 187.227 121.301 -785.041 -191.711 8806.47 2875.37 89.7901
73 1 191.582 120.683 -824.239 -186.15 7867.09 3103.86 93.8887
38 1 104.393 124.816 -39.5325 -223.346 1951.74 3116.7 25.202
55 1 82.8539 126.235 154.315 -236.115 -2667.56 1960.43 31.3411
37 1 163.773 126.303 -573.954 -236.729 7435.35 2061.37 68.9841
52 1 113.556 128.135 -122 -253.212 2829.63 808.312 31.23
50 1 175.113 129.118 -676.02 -262.061 5311.15 4072.5 80.5597
65 1 107.82 136.012 -70.3828 -324.105 959.148 2382.16 36.851
26 1 15.728 139.74 758.448 -357.66 -6906.86 4171.12 93.1721
4 1 21.178 139.009 709.398 -351.077 -6122.4 2783.82 87.9464
76 1 47.0482 139.109 476.566 -351.981 -5037.28 2873.28 65.8286
33 1 68.4322 139.777 284.11 -357.993 -2321.86 1978.02 50.7813
66 1 31.8405 143.327 613.435 -389.942 -4713.21 5601.39 80.7647
19 1 102.168 142.699 -19.5147 -384.289 -1188.38 2438.51 42.7538
85 1 156.408 142.686 -507.668 -384.175 4652.09 4626 70.7384
40 1 91.3753 143.903 77.6227 -395.123 -2359.47 5266.42 44.7417
91 1 7.11279 144.627 835.985 -401.643 -7627.89 2581.38 103.051
42 1 52.3202 145.488 429.118 -409.391 -5066.34 5634.58 65.8977
53 1 62.9349 146.689 333.586 -420.203 -3616.01 3313.93 59.6129
27 1 156.658 147.414 -509.92 -426.725 5793.21 3848.08 73.8795
88 1 138.439 151.996 -345.955 -467.964 2962.13 4540.89 64.662
31 1 55.1412 158.137 403.729 -523.232 -4538.53 4374.24 73.4316
32 1 90.0671 157.562 89.3962 -518.058 -912.106 6825.02 58.4127
54 1 172.14 159.301 -649.261 -533.712 5925.06 4852.46 93.3855
79 1 81.7138 163.185 164.576 -568.667 -3111.35 4195.64 65.7781
61 1 143.831 163.672 -394.477 -573.05 4396.9 6129.98 77.3
78 1 91.198 165.21 79.2178 -586.889 -510.689 6790 65.8012
63 1 100.67 169.088 -6.0345 -621.793 673.62 7633.69 69.0914
68 1 18.6455 175.251 732.19 -677.257 -7788.49 5388.69 110.821
47 1 65.8283 176.692 307.545 -690.231 -3989.66 7530.81 83.9608
56 1 106.561 177.848 -59.0528 -700.633 455.704 6683.41 78.1242
18 1 127.112 177.354 -244.011 -696.19 1230.53 7828.01 81.9682
3 1 184.624 177.49 -761.617 -697.408 8519.7 8304.19 114.743
92 1 80.8579 178.747 172.279 -708.726 -2487.54 5860.71 81.0405
57 1 139.191 178.368 -352.716 -705.315 3742.02 7700.52 87.6214
34 1 5.11572 179.945 853.958 -719.504 -8085.79 7445.15 124.073
94 1 27.547 182.628 652.077 -743.648 -5620.87 6429.45 109.894
95 1 135.24 185.673 -317.164 -771.061 4657.48 7372.96 92.6382
90 1 151.793 187.112 -466.138 -784.012 4060.63 8690.46 101.346
2 1 189.884 186.173 -808.959 -775.557 9069.49 7458.94 124.519
96 1 112.012 187.776 -108.109 -789.986 2561.17 7290.36 88.5944
71 1 6.12781 190.09 844.85 -810.814 -8336.24 6557.12 130.109
29 1 152.9 195.803 -476.103 -862.23 5594.77 9380.37 109.438
ITEM: TIMESTEP
100
ITEM: NUMBER OF ATOMS
100
ITEM: BOX BOUNDS ff ff pp
0.0000000000000000e+00 2.0000000000000000e+02
0.0000000000000000e+00 2.0000000000000000e+02
-5.0000000000000000e-01 5.0000000000000000e-01
ITEM: ATOMS id type x y vx vy fx fy v_dist
24 1 17.0618 11.7748 737.256 785.614 -6690.58 -9377.13 121.089
49 1 177.751 13.3021 -691.953 773.182 8642.98 -8698.84 116.455
81 1 20.4966 16.9589 707.522 739.131 -8277.61 -5821.28 114.964
64 1 59.8776 16.2159 357.227 745.741 -5232.66 -7771.55 92.8955
87 1 30.0625 17.5974 624.233 733.488 -4734.91 -7258.58 108.081
60 1 135.79 18.4747 -319.094 727.753 4012.32 -6514.74 89.0354
100 1 129.141 19.5103 -258.87 716.665 3429.68 -7663.43 85.6026
59 1 142.996 19.6883 -382.009 714.442 2211.58 -8241.58 91.0969
75 1 125.585 20.3272 -228.758 710.087 1485.75 -5912.24 83.68
15 1 113.68 22.5097 -121.947 688.135 2917.04 -6428.91 78.6886
84 1 43.5749 23.621 503.44 681.147 -5213.59 -6919.6 94.9607
30 1 84.902 25.8616 133.424 660.877 -1883.85 -6002.73 75.6601
12 1 92.9855 26.2792 62.4199 656.035 -1171.62 -6700.12 74.0537
13 1 109.86 26.4127 -89.2547 655.512 166.553 -6425.07 74.2449
45 1 37.7054 28.7803 554.82 633.927 -3861.12 -7157.63 94.6196
48 1 59.7101 28.7436 359.143 635.879 -2614.28 -5107.04 81.8581
44 1 23.8209 31.4918 679.264 609.822 -6140.32 -7581.08 102.453
41 1 9.0443 33.6693 809.507 592.383 -7503.27 -4921.42 112.573
97 1 168.142 37.7024 -607.46 555.177 6967.31 -6445.97 92.3275
5 1 52.9344 41.0792 418.547 525.437 -5057.43 -6567.52 75.4111
10 1 112.22 40.3965 -110.345 532.223 1447.65 -6587.19 60.8433
98 1 131.189 40.6324 -277.954 528.842 1651 -5227.6 67.0619
17 1 171.967 40.5901 -641.588 529.223 5873.69 -4147.79 93.3206
74 1 81.65 46.0569 163.316 481.674 -177.46 -5051.8 56.9788
58 1 112.237 45.8318 -109.588 482.241 2208.74 -5287.14 55.5332
86 1 115.866 46.9918 -141.954 470.532 717.251 -3242.57 55.3317
35 1 170.634 48.6191 -631.765 458.713 6133.82 -4984.77 87.3448
14 1 87.6242 50.4549 110.08 440.768 -1964.83 -5479.68 51.0674
69 1 25.9539 53.7893 659.658 412.194 -6356.31 -2554.01 87.2826
22 1 75.1111 62.9123 222.737 330.821 -519.478 -2729.45 44.6649
36 1 94.3973 63.9861 52.1745 321.888 15.9815 -3890.22 36.4471
20 1 47.1632 64.804 470.168 314.877 -6293.07 -1723.93 63.4862
99 1 186.61 65.0068 -770.86 312.098 8734.79 -3055.93 93.4121
89 1 83.6005 65.7841 145.165 303.556 -2297.91 -1744.43 37.943
46 1 141.02 66.0581 -364.792 300.981 2961.46 -1982.43 53.2421
8 1 118.04 68.0573 -160.053 282.938 2375.82 -4215.69 36.6848
1 1 175.083 69.791 -670.421 270.138 7652.31 -1570.54 80.9321
11 1 180.912 69.8581 -719.005 269.735 7260.98 -2580.51 86.3436
28 1 131.598 70.306 -280.822 265.557 3499.96 -4028.06 43.361
70 1 163.142 71.8011 -561.93 251.147 6697.59 -4239.41 69.1527
72 1 154.727 80.1216 -486.992 177.04 4040.68 -425.591 58.2253
16 1 115.302 81.2532 -137.945 165.177 985.871 -2199.55 24.1992
67 1 39.3511 83.9094 539.811 142.603 -5068.3 -1209.09 62.7471
77 1 83.7391 89.722 142.469 92.5516 -2736.41 -1904.48 19.2367
23 1 33.6311 90.6477 590.051 83.4136 -7603.12 -1761.92 67.0246
25 1 125.008 91.8675 -221.709 72.6279 2777.22 -294.233 26.2968
93 1 70.6104 97.4792 261.13 21.7381 -3675.18 -597.735 29.4975
62 1 9.16923 99.6436 808.804 3.68866 -9329.11 1089.25 90.8315
7 1 119.113 99.7709 -170.553 0.0525435 1891.29 -367.292 19.1141
39 1 131.863 100.089 -283.312 -0.7136 4191.43 -1113.85 31.8627
9 1 31.6413 105.743 609.648 -49.9113 -7673.3 1303.06 68.5995
80 1 47.7713 105.202 466.065 -46.3542 -4311.14 1169.95 52.4871
6 1 64.7427 105.601 312.66 -48.5576 -4354.06 2114.46 35.6994
82 1 103.411 106.632 -29.4258 -56.6619 862.553 1232.71 7.45763
21 1 153.168 107.863 -474.773 -70.3908 3231.97 967.056 53.7466
51 1 103.742 112.904 -33.1916 -113.704 655.201 1167.49 13.4353
83 1 94.4702 116.125 48.7091 -143.016 -2094.15 1032.13 17.0469
43 1 179.757 119.466 -709.233 -174.53 6245.16 1620.11 82.0981
73 1 183.737 118.921 -746.197 -167.142 7174.47 1831.16 85.8483
38 1 104.017 122.691 -35.5969 -202.235 967.424 815 23.0434
55 1 84.3253 123.98 140.049 -214.959 -1179.49 619.874 28.6482
37 1 158.307 124.046 -519.766 -214.845 5881.37 1434.83 63.0705
52 1 112.389 125.734 -110.372 -227.981 2452.32 1768.12 28.5605
50 1 168.678 126.627 -611.547 -236.049 4688.89 3533.71 73.6587
65 1 107.154 132.927 -61.5307 -293.259 -439.999 2037.59 33.695
26 1 22.958 136.334 688.401 -323.624 -6338.92 2151.88 85.18
4 1 27.929 135.665 643.143 -318.56 -4800.03 3766.71 80.4126
76 1 51.5752 135.745 429.886 -320.175 -5079.39 3490.58 60.1888
33 1 71.1318 136.364 256.73 -323.725 -1295.67 4699.03 46.4296
66 1 37.6819 139.609 555.876 -354.297 -4475.78 5117.86 73.8403
19 1 101.977 139.038 -17.5183 -347.007 -912.456 4851.52 39.0882
85 1 151.575 139.034 -458.451 -347.507 5672.66 3380.39 64.6812
40 1 92.1126 140.136 70.1167 -358.428 -1296.26 2041.74 40.9039
91 1 15.0688 140.799 755.622 -364.199 -8761.47 3610.38 94.2226
42 1 56.3998 141.587 386.538 -372.21 -5223.04 4007.77 60.253
53 1 66.1111 142.69 300.316 -380.763 -3637.04 2334.65 54.506
27 1 151.808 143.35 -461.14 -386.377 3940.39 3467.03 67.5522
88 1 135.149 147.538 -312.749 -424.415 1522.52 5716.11 59.1213
31 1 58.9783 153.152 364.212 -474.476 -4775.83 6163.01 67.141
32 1 90.9171 152.63 81.1871 -469.28 -466.281 6039 53.4084
54 1 165.96 154.223 -588.182 -482.226 5023.67 5293.8 85.3866
79 1 83.2758 157.777 148.138 -514.475 -1266.51 4798.16 60.1486
61 1 140.073 158.224 -357.714 -518.433 2689.14 4658.57 70.6817
78 1 91.9376 159.623 69.3998 -531.318 -212.141 5977.32 60.1661
63 1 100.608 163.176 -6.47298 -562.463 1041.37 4475.63 63.1788
68 1 25.6146 168.811 662.299 -612.167 -5607.29 7725.06 101.332
47 1 68.7493 170.129 277.198 -623.298 -1882.33 5325.15 76.7764
56 1 105.999 171.18 -53.601 -634.337 1355.67 7475.98 71.4324
18 1 124.796 170.731 -219.577 -630.31 2783.88 4912.58 74.9513
3 1 177.379 170.845 -688.283 -632.277 5615.26 7017.67 104.912
92 1 82.506 172.003 156.619 -640.733 -2091.56 5550.09 74.0975
57 1 135.836 171.659 -319.084 -637.988 3775.72 5116.18 80.1198
34 1 13.2351 173.103 771.792 -650.02 -7425.88 6940.6 113.455
94 1 33.7573 175.556 590.641 -672.894 -6028.49 5624.38 100.483
95 1 132.217 178.337 -286.977 -697.854 4525.15 6626.55 84.703
90 1 147.355 179.653 -421.302 -709.478 4603.84 7053.8 92.6669
2 1 182.185 178.799 -732.138 -701.335 6787.31 5869.56 113.858
96 1 110.99 180.25 -96.3594 -716.346 2425.17 7951.48 80.9988
71 1 14.1587 182.385 763.568 -731.459 -7860.17 8423.71 118.979
29 1 148.378 187.601 -430.281 -779.963 5585.51 6835.44 100.072
ITEM: TIMESTEP
200
ITEM: NUMBER OF ATOMS
100
ITEM: BOX BOUNDS ff ff pp
0.0000000000000000e+00 2.0000000000000000e+02
0.0000000000000000e+00 2.0000000000000000e+02
-5.0000000000000000e-01 5.0000000000000000e-01
ITEM: ATOMS id type x y vx vy fx fy v_dist
24 1 24.083 19.2435 667.948 709.211 -5652.29 -5903.1 110.838
49 1 171.172 20.6685 -624.982 700.945 5976.44 -6590.47 106.579
81 1 27.2323 23.9952 640.118 668.526 -7064.96 -7805.82 105.223
64 1 63.2797 23.3128 324.618 675.042 -3511.35 -5322.39 85.0253
87 1 36.0096 24.5755 566.306 663.447 -5239.14 -7307.33 98.9122
60 1 132.766 25.3984 -287.245 658.299 3431.07 -4942.55 81.4799
100 1 126.682 26.3315 -233.989 648.636 3357.2 -5989.22 78.3515
59 1 139.366 26.4793 -344.469 645.107 4830.75 -4771.06 83.3964
75 1 123.404 27.0797 -207.536 640.349 3010.04 -5286.03 76.5839
15 1 112.521 29.0618 -109.844 622.842 2170.47 -6446.67 72.0347
84 1 48.3544 30.1041 453.929 617.666 -3655.93 -7822.26 86.9063
30 1 86.1761 32.1432 122.687 596.726 -333.046 -5074.68 69.2506
12 1 93.5881 32.5294 57.4533 594.637 -2171.48 -5361.87 67.7746
13 1 109.004 32.6586 -80.2696 594.867 2487.57 -6512.62 67.9407
45 1 42.9868 34.7999 502.481 572.162 -5542.54 -5843.55 86.6115
48 1 63.1331 34.7936 325.738 575.33 -3104 -6396.92 74.9068
44 1 30.2837 37.2931 613.76 551.708 -7536.64 -6698.75 93.7684
41 1 16.7534 39.3056 732.373 535.831 -5815.5 -5547.18 103.023
97 1 162.365 42.9857 -549.1 502.636 6486.45 -6502 84.4987
5 1 56.9141 46.0802 378.996 476.269 -4894.45 -6390.89 69.0198
10 1 111.168 45.458 -100.086 480.171 1616.73 -6024.12 55.6737
98 1 128.537 45.6639 -252.757 477.827 3848.08 -3803.34 61.3739
17 1 165.856 45.6263 -580.388 479.042 6665.05 -6163.06 85.4022
74 1 83.2077 50.6481 148.634 437.006 -644.082 -5594.03 52.1306
58 1 111.197 50.4063 -98.3939 434.38 -52.7292 -2862.5 50.8421
86 1 114.521 51.4543 -127.803 423.83 2030.42 -3481.46 50.6709
35 1 164.624 52.9759 -571.949 414.206 6175.26 -4535.21 79.9222
14 1 88.6739 54.6422 100.206 396.772 -2033.01 -3700.56 46.7505
69 1 32.2308 57.7119 596.561 373.238 -6646.01 -5095.44 79.8809
22 1 77.2238 66.0527 200.505 297.286 -2506.56 -4327.34 40.8799
36 1 94.8896 67.0526 46.3388 291.241 -930.551 -4029.42 33.3414
20 1 51.6397 67.789 425.747 283.246 -5769.04 -3088.72 58.1056
99 1 179.285 67.9819 -696.866 283.32 5519.93 -3353.27 85.5064
89 1 84.985 68.6719 132.342 274.075 -696.063 -4399.63 34.7405
46 1 137.547 68.9244 -330.428 272.208 1980.41 -3640.66 48.7388
8 1 116.518 70.7525 -143.836 256.486 2056.66 -1066.53 33.5897
1 1 168.699 72.3756 -606.968 247.791 6180.52 -1744.1 74.0446
11 1 174.068 72.4216 -650.009 242.631 5012.85 -2591.4 79.0357
28 1 128.922 72.8286 -254.775 239.896 2108.21 -1492.48 39.683
70 1 157.795 74.1937 -508.306 228.752 5450.95 -1561.84 63.295
72 1 150.096 81.8023 -440.351 159.542 5833.68 -55.4478 53.2984
16 1 113.991 82.8337 -124.633 150.194 121.741 -2240.92 22.1458
67 1 44.4815 85.278 487.275 130.844 -5150.91 -1821.04 57.4372
77 1 85.0959 90.5959 128.862 83.7095 -966.077 195.993 17.6229
23 1 39.2557 91.4433 535.14 76.2831 -6127.27 190.881 61.344
25 1 122.903 92.5491 -200.008 64.597 3380.49 669.24 24.0841
93 1 73.1046 97.6856 238.263 20.1315 -948.805 1222.65 26.9948
62 1 16.8703 99.6769 732.634 3.18568 -8586.29 647.603 83.1303
7 1 117.497 99.7703 -152.575 0.188505 437.76 1298.38 17.4984
39 1 129.177 100.084 -255.478 -0.423147 2532.81 961.402 29.1774
9 1 37.4462 105.272 552.272 -45.5448 -5207.21 -1104.87 62.7756
80 1 52.2148 104.758 423.053 -43.1329 -3974.9 686.808 48.0215
6 1 67.7118 105.147 282.16 -43.3467 -3606.73 -945.713 32.6959
82 1 103.129 106.09 -26.8345 -51.765 328.016 888.96 6.84648
21 1 148.653 107.184 -429.189 -66.0826 3709.37 298.596 49.1801
51 1 103.422 111.82 -30.516 -102.204 490.079 1996.97 12.3056
83 1 94.9329 114.764 44.4415 -129.62 -1083.51 1302.5 15.6094
43 1 173.005 117.817 -642.677 -156.785 5773.06 1075.27 75.1479
73 1 176.635 117.316 -675.606 -153.027 8205.11 2756.25 78.5667
38 1 103.667 120.765 -34.3095 -182.752 849.631 2222.35 21.0858
55 1 85.6638 121.951 127.832 -192.413 -1238.7 835.736 26.2178
37 1 153.371 122 -469.409 -194.632 2989.67 1373.18 57.7276
52 1 111.331 123.559 -100.775 -206.509 1954.85 982.605 26.1424
50 1 162.859 124.383 -553.842 -214.012 5242.48 2922.65 67.4225
65 1 106.574 130.13 -54.2329 -266.277 -980.878 3025.17 30.8386
26 1 29.5183 133.257 624.036 -292.466 -6534.02 3921.64 77.9338
4 1 34.0414 132.632 580.666 -289 -6946.39 1869.29 73.5893
76 1 55.6657 132.699 388.774 -289.64 -3253.04 2608.18 55.0885
33 1 73.5734 133.276 232.726 -293.976 -2248.59 3913.62 42.4927
66 1 42.97 136.243 502.366 -320.102 -4742.71 2130.96 67.5718
19 1 101.807 135.735 -16.203 -314.132 1384 1772.83 35.7809
85 1 147.221 135.732 -414.55 -313.788 4459.08 1879.43 59.2168
40 1 92.7746 136.72 62.7523 -325.422 933.121 3816.04 37.4243
91 1 22.2612 137.334 684.316 -328.762 -7275.92 3078.51 86.2391
42 1 60.0727 138.047 349.364 -336.639 -4814.38 3414.66 55.152
53 1 68.9693 139.06 271.7 -345.685 -3492.16 2345.08 49.8854
27 1 147.425 139.686 -416.531 -347.875 4476.27 1908.99 61.8394
88 1 132.165 143.494 -283.922 -385.007 4130.85 4271.39 54.0952
31 1 62.4546 148.631 330.501 -430.421 -2069.71 5321.71 61.4379
32 1 91.6916 148.166 73.7138 -423.774 -1012.92 2574.68 48.8778
54 1 160.362 149.631 -531.406 -437.26 5828.25 2741.8 78.1467
79 1 84.6774 152.883 132.206 -465.818 -1920.61 5664.27 55.0577
61 1 136.67 153.284 -323.893 -470.659 2836.29 3764.8 64.6832
78 1 92.6042 154.573 62.61 -479.02 749.022 3240.53 55.072
63 1 100.544 157.832 -6.53039 -507.304 -470.65 4525.82 57.8343
68 1 31.9162 162.984 599.536 -554.493 -6189.86 6856.7 92.7488
47 1 71.3851 164.194 251.499 -563.948 -3461.97 5287.78 70.2831
56 1 105.495 165.144 -48.1344 -574.049 1060.72 4436.89 65.3754
18 1 122.707 164.735 -198.412 -569.979 1962.61 6306.69 68.6022
3 1 170.835 164.833 -622.211 -570.983 7607.3 6975.55 96.0251
92 1 83.9906 165.893 141.508 -581.558 -262.652 6232.89 67.8095
57 1 132.808 165.584 -288.349 -577.585 1476.79 6494.47 73.3321
34 1 20.59 166.924 700.049 -586.931 -6105.2 4757.96 103.85
94 1 39.3877 169.152 535.882 -608.708 -5203.66 6449.55 91.9561
95 1 129.487 171.69 -259.76 -631.651 1774.6 7760.98 77.517
90 1 143.342 172.89 -382.576 -644.356 2515.78 6913.31 84.8023
2 1 175.218 172.128 -662.038 -634.254 6739.46 5001.55 104.213
96 1 110.069 173.434 -87.5513 -647.996 2057.44 5856.1 74.1215
71 1 21.4387 175.418 693.167 -662.766 -7206.39 7382.38 108.903
29 1 144.286 180.185 -388.918 -705.096 4948.38 5489.45 91.6016
ITEM: TIMESTEP
300
ITEM: NUMBER OF ATOMS
100
ITEM: BOX BOUNDS ff ff pp
0.0000000000000000e+00 2.0000000000000000e+02
0.0000000000000000e+00 2.0000000000000000e+02
-5.0000000000000000e-01 5.0000000000000000e-01
ITEM: ATOMS id type x y vx vy fx fy v_dist
24 1 30.4391 25.9865 604.676 640.064 -4894.57 -7922.4 101.571
49 1 165.218 27.3417 -566.523 634.414 6479.87 -7058.9 97.635
81 1 33.3184 30.3563 578.863 605.073 -7048.8 -7010.87 96.4193
64 1 66.3719 29.7398 294.672 611.102 -1766.93 -4921.27 77.8931
87 1 41.3986 30.8882 512.434 600.119 -5865.45 -6155.59 90.6121
60 1 130.041 31.6698 -258.662 596.083 2894.82 -6072.27 74.6424
100 1 124.456 32.5021 -210.702 586.567 1162.98 -4240.81 71.7918
59 1 136.079 32.6134 -312.918 583.216 3784.87 -7330.8 76.4373
75 1 121.433 33.1648 -187.356 578.722 596.113 -6742.49 70.1877
15 1 111.477 34.9887 -98.5039 563.044 828.268 -4132.08 66.0167
84 1 52.6695 35.9747 410.194 557.861 -2852.54 -5879.02 79.6204
30 1 87.3474 37.8177 112.111 539.64 -2136.77 -4001.2 63.4565
12 1 94.1308 38.1874 51.8472 538.255 -839.08 -6813.75 62.0906
13 1 108.248 38.3213 -72.2305 538.732 -518.211 -5106.12 62.2278
45 1 47.7622 40.2513 454.266 519.287 -3209.67 -6868.86 79.3643
48 1 66.2181 40.2621 292.131 519.437 -1517.12 -5876.24 68.6282
44 1 36.1234 42.5522 555.146 500.982 -5527.64 -4853.79 85.9097
41 1 23.7278 44.3977 663.381 483.368 -4943.63 -5131.09 94.3878
97 1 157.15 47.7766 -494.972 455.634 4852.86 -6169.2 77.417
5 1 60.5159 50.6124 341.525 430.397 -2539.55 -2899.87 63.2307
10 1 110.226 50.0201 -89.1195 433.291 1240.69 -3457.76 51.0153
98 1 126.128 50.212 -228.127 432.783 3374.6 -5998.56 56.2272
17 1 160.327 50.1881 -526.808 433.759 4231.65 -5271.06 78.2338
74 1 84.6213 54.8114 133.516 396.703 -2161.31 -3296.66 47.7338
58 1 110.273 54.5394 -87.0555 393.707 1423.31 -3827.19 46.6069
86 1 113.308 55.4811 -115.069 382.759 1878.11 -2984.28 46.4654
35 1 159.181 56.9168 -517.132 375.053 5059.08 -4722.31 73.2018
14 1 89.6387 58.4241 92.0801 359.947 -2019.7 -4521.84 42.8475
69 1 37.8987 61.2622 539.058 336.748 -5490.26 -3476.09 73.1928
22 1 79.1366 68.8895 182.077 270.762 -2731.64 -3180.65 37.4586
36 1 95.3395 69.8192 43.392 262.691 -5.95425 -3845.57 30.5385
20 1 55.6923 70.4793 385.164 255.208 -2578.89 -3844.34 53.2413
99 1 172.658 70.6852 -629.152 257.232 6168.52 -3783.28 78.3489
89 1 86.2424 71.2836 119.988 248.731 -641.777 -3508.58 31.8419
46 1 134.409 71.5075 -298.062 245.313 3012.43 -2431.41 44.6742
8 1 115.151 73.2012 -129.913 232.92 1070.35 -1483.44 30.7851
1 1 162.928 74.7345 -548.238 224.038 5373.98 -2777.46 67.8105
11 1 167.878 74.7297 -588.793 219.564 5005.93 -2047.19 72.4297
28 1 126.496 75.1141 -231.089 217.694 2909.12 -2059.5 36.3505
70 1 152.957 76.3815 -459.541 208.837 4597.1 -3360.4 57.9856
72 1 145.911 83.3239 -397.826 145.215 2345.8 -3021.29 48.8461
16 1 112.801 84.2646 -113.931 135.924 1749.33 208.768 20.2846
67 1 49.1124 86.5257 439.482 119.052 -3671.67 -315.149 52.6412
77 1 86.3192 91.3949 116.091 75.9872 -1445.57 -961.84 16.1621
23 1 44.34 92.1688 483.069 68.4515 -5767.95 888.983 56.2082
25 1 121.007 93.1758 -180.172 60.0223 956.743 280.125 22.0878
93 1 75.3864 97.8902 218.627 20.2909 -1698.72 254.722 24.7038
62 1 23.8396 99.7108 662.847 3.78613 -6923.47 -301.947 76.1609
7 1 116.033 99.7771 -140.101 0.632763 -300.375 -1064.65 16.0343
39 1 126.749 100.087 -231.206 1.03905 3926.15 -1545.88 26.7493
9 1 42.6887 104.833 497.694 -41.7546 -3703.81 -250.731 57.5148
80 1 56.2374 104.345 383.315 -39.5326 -4460.82 -1173.86 43.9777
6 1 70.394 104.737 254.464 -38.9316 -1579.5 -129.632 29.9825
82 1 102.875 105.593 -24.123 -46.9731 1556.44 -788.402 6.28829
21 1 144.567 106.555 -389.093 -59.7972 2736.97 -443.48 45.0468
51 1 103.126 110.843 -27.9993 -93.2814 1549.42 -399.996 11.2846
83 1 95.3636 113.54 41.2669 -114.886 100.348 -287.921 14.3115
43 1 166.894 116.325 -580.705 -140.899 5184.11 1840.09 68.8571
73 1 170.206 115.861 -610.946 -138.6 6310.55 2967.54 71.9754
38 1 103.338 119.032 -31.371 -164.167 -126.374 858.897 19.3221
55 1 86.8855 120.116 116.665 -174.432 329.342 265.134 24.0135
37 1 148.908 120.15 -422.537 -175.713 5778.58 3313.69 52.8966
52 1 110.367 121.606 -91.9762 -185.294 1765.61 3473.5 23.9641
50 1 157.58 122.34 -502.257 -193.872 4844.7 1180.49 61.7618
65 1 106.056 127.608 -49.9547 -239.445 -583.17 2245.18 28.264
26 1 35.4593 130.477 564.749 -263.255 -6949.58 4221.94 71.3749
4 1 39.561 129.878 525.148 -262.467 -6135.09 1802.12 67.4208
76 1 59.3676 129.934 351.025 -263.827 -2849.79 2930.38 50.468
33 1 75.792 130.484 211.593 -265.317 -1441.09 2466.14 38.9265
66 1 47.7553 133.198 455.493 -288.186 -5727.39 2041 61.8999
19 1 101.66 132.742 -14.1487 -284.032 -1378.57 3670.82 32.784
85 1 143.275 132.745 -375.613 -283.985 4041.81 1594.04 54.2671
40 1 93.3716 133.628 56.372 -293.893 635.514 1739.31 34.2746
91 1 28.7675 134.193 617.641 -299.398 -7649.1 1799.25 79.0141
42 1 63.3973 134.843 316.435 -304.819 -4802.44 2173.14 50.5354
53 1 71.562 135.771 246.457 -312.122 -4079.05 1898.37 45.6978
27 1 143.457 136.372 -377.543 -314.748 3683.33 4251.04 56.6695
88 1 129.463 139.832 -256.634 -347.74 3641.8 4906.95 49.5445
31 1 65.6036 144.54 299.184 -389.032 -2171.53 3364.87 56.2754
32 1 92.3919 144.126 66.2147 -383.935 -320.699 4283.01 44.777
54 1 155.307 145.475 -480.585 -393.46 5932.59 4892.17 71.6018
79 1 85.9389 148.459 119.988 -420.596 -980.032 4632.22 50.4582
61 1 133.582 148.802 -294.417 -425.727 4424.26 4247.45 59.2399
78 1 93.1982 150.008 56.6221 -434.781 -1923.89 3660.86 50.4681
63 1 100.479 153.002 -6.07564 -460.042 1238.94 3325.82 53.0037
68 1 37.6267 157.714 542.413 -501.611 -6497.89 5041.06 84.9784
47 1 73.7752 158.829 226.38 -509.751 -1214.83 4269.66 64.4093
56 1 105.044 159.678 -42.621 -519.423 -242.885 5735.53 59.8909
18 1 120.824 159.307 -178.86 -515.366 334.758 5883.36 62.8562
3 1 164.911 159.401 -563.343 -516.004 6393.5 4530.81 87.9881
92 1 85.3381 160.37 128.381 -523.432 -1927.29 5730.19 62.125
57 1 130.059 160.091 -261.837 -522.254 4253.63 5836.58 67.1896
34 1 27.251 161.343 632.598 -530.354 -5568 6210.8 95.1597
94 1 44.4903 163.366 485.139 -548.595 -3788.31 4708.85 84.2413
95 1 127.018 165.682 -235.134 -571.422 1284.3 6179.02 71.0216
90 1 139.701 166.761 -346.754 -583.038 3064.37 7127.55 77.6736
2 1 168.926 166.097 -598.429 -573.47 7094.2 6100.22 95.4972
96 1 109.232 167.268 -80.1907 -585.544 1535.94 4682.49 67.8981
71 1 28.0346 169.106 626.636 -601.531 -6506.51 5161.93 99.7728
29 1 140.597 173.475 -350.088 -638.293 5076.83 4709.42 83.9445
ITEM: TIMESTEP
400
ITEM: NUMBER OF ATOMS
100
ITEM: BOX BOUNDS ff ff pp
0.0000000000000000e+00 2.0000000000000000e+02
0.0000000000000000e+00 2.0000000000000000e+02
-5.0000000000000000e-01 5.0000000000000000e-01
ITEM: ATOMS id type x y vx vy fx fy v_dist
24 1 36.1888 32.085 546.256 580.329 -6490.48 -6543.38 93.1897
49 1 159.821 33.3783 -513.481 573.989 6588.65 -5871.35 89.538
81 1 38.8164 36.1178 522.787 548.812 -5306.09 -5619.59 88.4554
64 1 69.1774 35.5492 266.275 552.207 -1058.76 -6875.99 71.4418
87 1 46.269 36.5953 463.254 542.152 -5193.33 -4767.49 83.1095
60 1 127.588 37.3402 -232.687 539.219 1207.54 -6899.96 68.4642
100 1 122.454 38.0905 -190.239 531.764 2224.3 -6856.24 65.8558
59 1 133.105 38.1633 -283.367 527.991 4502.74 -5266.08 70.1405
75 1 119.654 38.6559 -168.286 520.979 705.864 -6911.43 64.4156
15 1 110.532 40.3446 -89.4649 509.127 1699.18 -6353.76 60.5779
84 1 56.5714 41.2838 371.505 505.632 -4506.97 -5641.01 73.0318
30 1 88.4166 42.9459 101.969 487.44 -1767.71 -5294.94 58.2181
12 1 94.6195 43.3115 46.3787 486.969 -1155.7 -5608.83 56.9433
13 1 107.566 43.4508 -64.1434 487.809 -233.597 -5634.14 57.0531
45 1 52.0747 45.1963 409.574 470.054 -5572.66 -2990.21 72.803
48 1 68.9942 45.2067 264.23 470.006 -2761.75 -4011.11 62.9577
44 1 41.405 47.3261 502.037 453.476 -3935.18 -5469.51 78.7904
41 1 30.0419 48.9926 600.006 437.28 -7308.88 -3710.77 86.5788
97 1 152.441 52.1116 -448.336 412.653 5503.69 -5036.99 71.0168
5 1 63.7699 54.7047 309.194 388.859 -3131.33 -2271.76 58.0024
10 1 109.387 54.1483 -79.1227 393.231 -353.886 -3266.98 46.8027
98 1 123.952 54.3076 -206.908 388.402 2208.54 -4175.57 51.5896
17 1 155.308 54.3149 -477.641 391.891 4097.72 -4925.12 71.7364
74 1 85.8879 58.5829 119.387 358.048 -1771.65 -2232.88 43.7554
58 1 109.438 58.2845 -80.1478 356.886 1596.37 -2375.84 42.7698
86 1 112.209 59.1174 -104.379 345.192 1337.82 -3681.85 42.6668
35 1 154.26 60.4839 -467.535 338.546 3747.11 -4657.01 67.1244
14 1 90.5154 61.8519 84.0892 325.704 596.624 -4305.92 39.3095
69 1 43.0319 64.4676 489.031 304.805 -5619.44 -2616.96 67.1411
22 1 80.8641 71.4681 164.166 244.894 -2591.1 -1731.96 34.3548
36 1 95.7545 72.3184 39.4902 237.587 -598.595 -1972.42 28.0053
20 1 59.3603 72.8989 348.817 229.209 -2783.38 -1598.24 48.8473
99 1 166.671 73.1354 -569.391 233.396 4520.35 -3674.88 71.8801
89 1 87.3953 73.6534 110.512 225.014 -686.418 -2570.67 29.2066
46 1 131.575 73.8416 -269.454 222.132 2397.06 -1716 41.0026
8 1 113.926 75.4239 -116.11 211.354 494.197 -1943.41 28.2474
1 1 157.713 76.8734 -495.74 203.945 5947.32 -1342.29 62.1745
11 1 162.274 76.811 -534.431 198.072 5613.5 -2974.66 66.4509
28 1 124.3 77.187 -208.536 196.79 2167.73 -475.192 33.3302
70 1 148.586 78.3678 -415.775 188.032 3859.82 -2691.49 53.1845
72 1 142.119 84.6892 -361.684 128.639 4735.59 -322.01 44.8151
16 1 111.722 85.5557 -102.587 122.349 -278.836 -334.352 18.6023
67 1 53.2883 87.6561 397.379 107.605 -2283.97 -803.539 48.3152
77 1 87.4268 92.1283 105.986 70.5051 -58.1122 -525.826 14.834
23 1 48.9267 92.8243 436.069 62.9131 -3395.46 -146.583 51.5749
25 1 119.293 93.7485 -163.646 55.2122 607.524 188.752 20.2802
93 1 77.4668 98.0606 197.652 14.7731 -2625.52 -1841.69 22.6165
62 1 30.1513 99.7476 600.534 3.95722 -6049.38 364.067 69.8492
7 1 114.706 99.7943 -125.148 1.58567 2027.94 1113.99 14.7074
39 1 124.543 100.099 -209.36 1.89786 3052.5 937.048 24.5433
9 1 47.424 104.432 450.486 -38.3727 -3326.98 358.47 52.7625
80 1 59.8836 103.965 346.981 -36.6557 -4144.8 -1222.11 40.3119
6 1 72.8113 104.365 229.753 -36.1853 -2417.6 -991.408 27.5368
82 1 102.646 105.147 -21.0934 -42.0816 1780.03 -1202.54 5.78723
21 1 140.861 105.979 -353.558 -55.7852 3693.19 -523.674 41.2957
51 1 102.865 109.965 -24.8423 -83.4696 645.677 821.708 10.369
83 1 95.7636 112.443 38.263 -104.886 -489.872 -21.3845 13.1447
43 1 161.369 114.976 -524.573 -128.568 6649.4 -21.1675 63.1704
73 1 164.389 114.547 -553.421 -124.322 4160.42 1321.08 66.0119
38 1 103.038 117.471 -28.4207 -147.981 300.421 1029.34 17.7333
55 1 87.9899 118.455 104.712 -159.175 -979.962 418.336 22.0192
37 1 144.888 118.486 -382.712 -157.884 3960.34 2432.76 48.545