ITEM: TIMESTEP
0
ITEM: NUMBER OF ATOMS
10
ITEM: BOX BOUNDS ff ff pp
0.0000000000000000e+00 2.0000000000000000e+02
0.0000000000000000e+00 2.0000000000000000e+02
-5.0000000000000000e-01 5.0000000000000000e-01
ITEM: ATOMS id type x y vx vy fx fy v_dist
5 1 48.5295 35.5566 463.234 579.991 -3634.35 -5872.16 82.4752
10 1 113.372 34.803 -120.344 586.773 1040.18 -5423.76 66.5541
8 1 119.728 65.0768 -177.55 314.309 745.022 -2779.52 40.1101
1 1 182.13 66.96 -739.174 297.36 6899.29 -3703.83 88.5272
7 1 120.908 99.7606 -188.171 2.15503 3441.02 853.909 20.9093
9 1 25.2339 106.278 672.895 -56.5004 -5698.49 2029.25 75.0292
6 1 61.445 106.119 346.995 -55.0709 -3071.08 2247.07 39.0375
4 1 21.178 139.009 709.398 -351.077 -6535.18 5195.14 87.9464
3 1 184.624 177.49 -761.617 -697.408 7598.85 6745 114.743
2 1 189.884 186.173 -808.959 -775.557 9667.16 6393.98 124.519
ITEM: TIMESTEP
100
ITEM: NUMBER OF ATOMS
10
ITEM: BOX BOUNDS ff ff pp
0.0000000000000000e+00 2.0000000000000000e+02
0.0000000000000000e+00 2.0000000000000000e+02
-5.0000000000000000e-01 5.0000000000000000e-01
ITEM: ATOMS id type x y vx vy fx fy v_dist
5 1 52.9236 41.0767 417.345 524.949 -5681.92 -6190.58 75.4198
10 1 112.231 40.3891 -108.839 531.086 1969.04 -4118.87 60.8527
8 1 118.035 68.0712 -160.575 284.62 610.618 -4216.33 36.6701
1 1 175.092 69.7957 -669.829 270.437 7695.11 -2963.47 80.9391
7 1 119.115 99.7812 -170.825 1.6946 83.0782 -275.507 19.1164
9 1 31.6329 105.743 608.018 -50.558 -4384.03 557.846 68.6079
6 1 64.7454 105.595 313.636 -49.4032 -1972.6 -330.982 35.6958
4 1 27.9276 135.662 641.903 -318.935 -5321.24 4284.76 80.4128
3 1 177.372 170.852 -689.761 -630.624 7159.76 6401.36 104.912
2 1 182.195 178.789 -730.566 -702.97 8255.55 6146.79 113.858
ITEM: TIMESTEP
200
ITEM: NUMBER OF ATOMS
10
ITEM: BOX BOUNDS ff ff pp
0.0000000000000000e+00 2.0000000000000000e+02
0.0000000000000000e+00 2.0000000000000000e+02
-5.0000000000000000e-01 5.0000000000000000e-01
ITEM: ATOMS id type x y vx vy fx fy v_dist
5 1 56.8995 46.0741 378.487 474.891 -3801.23 -6408.49 69.0337
10 1 111.19 45.4423 -99.9883 480.694 1665.85 -4306.1 55.6935
8 1 116.505 70.7791 -145.802 257.967 761.418 -3390.26 33.5602
1 1 168.715 72.3666 -606.138 244.381 6492.25 -1473.39 74.0632
7 1 117.492 99.7945 -154.416 0.695961 2067.78 950.535 17.4931
9 1 37.4166 105.257 549.821 -46.7949 -6353.56 358.389 62.8038
6 1 67.7221 105.129 282.427 -44.0702 -1207.58 -762.477 32.6828
4 1 34.0385 132.626 581.022 -288.783 -5462.8 4021.73 73.5892
3 1 170.806 164.84 -623.924 -572.028 6277.49 6531.74 96.0091
2 1 175.248 172.095 -661.323 -636.261 7232.14 4994.86 104.211
ITEM: TIMESTEP
300
ITEM: NUMBER OF ATOMS
10
ITEM: BOX BOUNDS ff ff pp
0.0000000000000000e+00 2.0000000000000000e+02
0.0000000000000000e+00 2.0000000000000000e+02
-5.0000000000000000e-01 5.0000000000000000e-01
ITEM: ATOMS id type x y vx vy fx fy v_dist
5 1 60.5051 50.5891 343.513 429.253 -5104.09 -4493.1 63.2557
10 1 110.224 50.0163 -92.9707 434.912 -115.032 -2919.49 51.0187
8 1 115.106 73.2342 -134.257 233.356 2337.03 -1849.35 30.7343
1 1 162.951 74.6891 -548.523 221.168 5592.97 -2034.14 67.849
7 1 116.027 99.7994 -140.118 0.846441 346.966 1123.59 16.0279
9 1 42.6576 104.811 498.81 -41.9039 -5175.13 1323.41 57.5439
6 1 70.4132 104.709 255.897 -40.0413 -3366.79 1322.45 29.9593
4 1 39.5687 129.877 525.838 -261.189 -6167.22 3931.76 67.4133
3 1 164.857 159.408 -565.672 -515.976 6192.21 4138.66 87.9536
2 1 168.962 166.039 -597.437 -575.964 4511.56 4079.66 95.4826
ITEM: TIMESTEP
400
ITEM: NUMBER OF ATOMS
10
ITEM: BOX BOUNDS ff ff pp
0.0000000000000000e+00 2.0000000000000000e+02
0.0000000000000000e+00 2.0000000000000000e+02
-5.0000000000000000e-01 5.0000000000000000e-01
ITEM: ATOMS id type x y vx vy fx fy v_dist
5 1 63.778 54.6686 311.997 387.248 -2385.62 -4306.48 58.0256
10 1 109.34 54.165 -83.1312 394.553 120.481 -5409.9 46.777
8 1 113.833 75.4469 -120.264 209.906 278.384 -2635.86 28.1818
1 1 157.732 76.8015 -496.775 200.959 3468.63 -1561.49 62.2186
7 1 114.681 99.8079 -128.711 0.0126838 2958.64 856.011 14.6822
9 1 47.4021 104.415 451.291 -36.7623 -5820.66 -197.746 52.7829
6 1 72.8459 104.334 230.854 -35.4264 -1647.13 -288.985 27.4978
4 1 44.5722 127.387 475.939 -237.097 -5275.4 3180.63 61.8247
3 1 159.468 154.5 -512.343 -466.384 4941.38 3616.04 80.6641
2 1 163.266 160.562 -541.599 -520.38 6140.9 3745.99 87.5805
ITEM: TIMESTEP
500
ITEM: NUMBER OF ATOMS
10
ITEM: BOX BOUNDS ff ff pp
0.0000000000000000e+00 2.0000000000000000e+02
0.0000000000000000e+00 2.0000000000000000e+02
-5.0000000000000000e-01 5.0000000000000000e-01
ITEM: ATOMS id type x y vx vy fx fy v_dist
5 1 66.752 58.3561 283.625 351.848 -2199.97 -1823.88 53.2883
10 1 108.543 57.9264 -75.7573 358.26 -933.562 -3832.55 42.9321
8 1 112.681 77.4346 -109.779 189.188 1983.37 -2699.02 25.8846
1 1 153.012 78.7101 -448.387 181.126 4058.55 -2876.6 57.1274
7 1 113.457 99.8098 -116.269 1.24171 1092.86 -471.079 13.458
9 1 51.6934 104.069 408.453 -32.3682 -4165.63 616.184 48.4777
6 1 75.0369 104.002 207.481 -31.7972 -1736.98 -994.99 25.2819
4 1 49.1025 125.123 430.873 -216.218 -2743.81 3628.44 56.7601
3 1 154.589 150.062 -463.871 -422.372 3729.04 4492.48 74.069
2 1 158.113 155.604 -490.111 -471.438 5337.88 5823.22 80.4292
ITEM: TIMESTEP
600
ITEM: NUMBER OF ATOMS
10
ITEM: BOX BOUNDS ff ff pp
0.0000000000000000e+00 2.0000000000000000e+02
0.0000000000000000e+00 2.0000000000000000e+02
-5.0000000000000000e-01 5.0000000000000000e-01
ITEM: ATOMS id type x y vx vy fx fy v_dist
5 1 69.4423 61.7006 255.241 318.323 -3891.23 -1595.94 48.9961
10 1 107.829 61.33 -66.9087 323.668 706.162 -2198.28 39.4546
8 1 111.626 79.2474 -101.227 173.471 -188.447 -3248.71 23.7874
1 1 148.74 80.4269 -406.402 162.732 2786.38 -2351.76 52.5234
7 1 112.352 99.8252 -104.399 2.22477 1047.21 346.511 12.3536
9 1 55.5831 103.758 370.001 -29.6866 -5228.43 -507.776 44.5756
6 1 77.0064 103.697 187.707 -29.7724 -2436.88 -779.298 23.2889
4 1 53.1988 123.068 389.601 -196.097 -3230.49 1604.66 52.1774
3 1 150.167 146.046 -420.795 -381.461 5646 3456.74 68.0949
2 1 153.458 151.122 -442.106 -425.518 5199.43 4605.5 73.9674
ITEM: TIMESTEP
700
ITEM: NUMBER OF ATOMS
10
ITEM: BOX BOUNDS ff ff pp
0.0000000000000000e+00 2.0000000000000000e+02
0.0000000000000000e+00 2.0000000000000000e+02
-5.0000000000000000e-01 5.0000000000000000e-01
ITEM: ATOMS id type x y vx vy fx fy v_dist
5 1 71.8712 64.7398 230.982 289.772 -3639.94 -2461.45 45.1055
10 1 107.185 64.4097 -61.7506 292.542 475.757 -4560.98 36.3083
8 1 110.655 80.8991 -92.7212 157.069 2223.63 77.8497 21.8715
1 1 144.876 81.9791 -368.26 148.02 2238.6 -1006.53 48.3594
7 1 111.365 99.8477 -93.1399 1.99373 2080.8 -1316.34 11.3662
9 1 59.0977 103.473 334.724 -27.5452 -1682.83 881.583 41.0495
6 1 78.7829 103.42 168.926 -27.0829 -690.675 458.12 21.4909
4 1 56.908 121.205 352.714 -177.491 -2906.34 132.052 48.0268
3 1 146.16 142.406 -381.095 -346.572 2378.22 4018.67 62.6816
2 1 149.259 147.071 -399.281 -385.428 4319.56 5126.6 68.1335
ITEM: TIMESTEP
800
ITEM: NUMBER OF ATOMS
10
ITEM: BOX BOUNDS ff ff pp
0.0000000000000000e+00 2.0000000000000000e+02
0.0000000000000000e+00 2.0000000000000000e+02
-5.0000000000000000e-01 5.0000000000000000e-01
ITEM: ATOMS id type x y vx vy fx fy v_dist
5 1 74.0749 67.4988 209.426 262.344 -2301.91 -3248.07 41.5745
10 1 106.601 67.1995 -55.5803 264.668 -832.337 -2886.43 33.458
8 1 109.768 82.3926 -84.0847 142.255 1592.16 -1429.88 20.1353
1 1 141.368 83.3895 -335.175 134.536 3570.6 -2383.62 44.578
7 1 110.478 99.856 -84.3846 0.565716 124.549 -1157.38 10.4792
9 1 62.2864 103.21 303.508 -24.9682 -1650.01 -1016.71 37.85
6 1 80.3993 103.169 154.344 -23.9444 -1505.17 -1280.55 19.8551
4 1 60.2603 119.518 319.172 -160.627 -3981.68 1604.74 44.2742
3 1 142.532 139.111 -345.632 -312.687 3133.32 1467.79 57.781
2 1 145.464 143.389 -360.508 -350.752 4425.33 3926.76 62.8459
ITEM: TIMESTEP
900
ITEM: NUMBER OF ATOMS
10
ITEM: BOX BOUNDS ff ff pp
0.0000000000000000e+00 2.0000000000000000e+02
0.0000000000000000e+00 2.0000000000000000e+02
-5.0000000000000000e-01 5.0000000000000000e-01
ITEM: ATOMS id type x y vx vy fx fy v_dist
5 1 76.0611 70.007 188.318 240.439 -692.243 -1722.08 38.3752
10 1 106.066 69.7148 -49.7026 238.418 1481.77 -1269.89 30.8867
8 1 108.975 83.7457 -74.4309 128.697 501.222 -2565.89 18.5674
1 1 138.174 84.6776 -304.581 123.299 2618.51 -2168.05 41.1342
7 1 109.675 99.849 -76.5735 -1.33061 596.434 -1178.01 9.67628
9 1 65.1739 102.973 274.97 -22.5221 -1174.54 732.318 34.9529
6 1 81.8603 102.939 138.155 -21.3038 -1142.79 1354.61 18.3762
4 1 63.2955 117.988 287.882 -145.555 -2530.36 2333.25 40.8751
3 1 139.252 136.143 -312.029 -281.436 3168.81 1666.27 53.3571
2 1 142.042 140.05 -324.847 -317.423 4267.48 2542.19 58.0643
ITEM: TIMESTEP
1000
ITEM: NUMBER OF ATOMS
10
ITEM: BOX BOUNDS ff ff pp
0.0000000000000000e+00 2.0000000000000000e+02
0.0000000000000000e+00 2.0000000000000000e+02
-5.0000000000000000e-01 5.0000000000000000e-01
ITEM: ATOMS id type x y vx vy fx fy v_dist
5 1 77.858 72.2987 171.754 217.253 -1044.99 -3663.56 35.4631
10 1 105.596 71.9884 -44.6102 215.905 2135.58 -3106.07 28.565
8 1 108.268 84.9769 -67.2641 116.883 -504.452 376.199 17.1482
1 1 135.272 85.8564 -276.531 111.323 1137.73 -1418.64 38.0016
7 1 108.946 99.8274 -70.0168 -2.56209 2184.07 104.17 8.94728
9 1 67.7882 102.759 248.96 -20.1448 -1685.7 954.279 32.3298
6 1 83.1825 102.734 125.535 -18.8566 -431.299 -295.721 17.0382
4 1 66.0561 116.608 263.583 -131.149 -4218.8 238.097 37.7891
3 1 136.291 133.468 -280.844 -254.336 2021.21 3715.51 49.367
2 1 138.943 137.027 -295.342 -287.615 4621.53 3325.32 53.7365
ITEM: TIMESTEP
1100
ITEM: NUMBER OF ATOMS
10
ITEM: BOX BOUNDS ff ff pp
0.0000000000000000e+00 2.0000000000000000e+02
0.0000000000000000e+00 2.0000000000000000e+02
-5.0000000000000000e-01 5.0000000000000000e-01
ITEM: ATOMS id type x y vx vy fx fy v_dist
5 1 79.4842 74.3723 154.064 197.833 -2625.5 -2116.82 32.828
10 1 105.168 74.0446 -40.0572 195.423 973.772 -748.736 26.4649
8 1 107.633 86.0902 -59.5415 106.116 757.812 -419.685 15.8667
1 1 132.639 86.9172 -249.858 101.339 3304.29 -1363.47 35.1637
7 1 108.276 99.7932 -63.9305 -3.57253 411.738 -1386.27 8.27827
9 1 70.1683 102.56 226.659 -20.3471 -2336.38 1651.24 29.9413
6 1 84.3709 102.556 112.755 -15.9403 -445.637 593.145 15.8367
4 1 68.5644 115.355 239.025 -119.403 -2731.96 -285.492 34.9855
3 1 133.618 131.049 -254.252 -230.112 3336.01 1443.34 45.7623
2 1 136.139 134.284 -266.37 -260.683 2643.91 4096.86 49.8141
ITEM: TIMESTEP
1200
ITEM: NUMBER OF ATOMS
10
ITEM: BOX BOUNDS ff ff pp
0.0000000000000000e+00 2.0000000000000000e+02
0.0000000000000000e+00 2.0000000000000000e+02
-5.0000000000000000e-01 5.0000000000000000e-01
ITEM: ATOMS id type x y vx vy fx fy v_dist
5 1 80.9531 76.2483 140.291 177.897 -1551.46 -795.191 30.4455
10 1 104.797 75.9094 -34.6549 178.482 437.725 -2541.77 24.5635
8 1 107.068 87.1024 -52.9317 96.1245 514.896 283.958 14.7072
1 1 130.266 87.8738 -225.617 90.8715 1032.33 344.59 32.6049
7 1 107.666 99.7535 -57.1339 -4.08586 1343.93 -891.411 7.66956
9 1 72.3325 102.364 206.328 -19.0061 -2626.16 97.2747 27.7683
6 1 85.4498 102.404 103.185 -14.4336 97.1128 294.263 14.7475
4 1 70.8365 114.227 215.792 -106.116 -1206.68 2203.56 32.4486
3 1 131.205 128.852 -229.05 -209.447 714.577 1674.54 42.4987
2 1 133.609 131.807 -240.407 -234.99 1269.26 659.916 46.2737
ITEM: TIMESTEP
1300
ITEM: NUMBER OF ATOMS
10
ITEM: BOX BOUNDS ff ff pp
0.0000000000000000e+00 2.0000000000000000e+02
0.0000000000000000e+00 2.0000000000000000e+02
-5.0000000000000000e-01 5.0000000000000000e-01
ITEM: ATOMS id type x y vx vy fx fy v_dist
5 1 82.2816 77.94 125.898 161.073 -2256.67 -2105.91 28.2946
10 1 104.468 77.6061 -30.6638 160.697 1716.29 -2042.33 22.8353
8 1 106.563 88.0155 -48.4581 86.9587 -1096.01 -830.584 13.6638
1 1 128.122 88.7337 -203.893 82.0179 801.117 466.95 30.2952
7 1 107.123 99.7221 -51.3545 -2.83591 -1087.64 -1552.26 7.12868
9 1 74.2993 102.187 187.029 -16.5086 -470.521 1190.17 25.7936
6 1 86.4265 102.261 92.2699 -13.6245 102.841 -244.181 13.7606
4 1 72.8976 113.218 195.698 -95.7064 -752.83 1019.01 30.154
3 1 129.023 126.855 -207.232 -190.737 1430.77 1760.84 39.5413
2 1 131.314 129.563 -219.113 -213.631 2710.76 2497.21 43.0643
ITEM: TIMESTEP
1400
ITEM: NUMBER OF ATOMS
10
ITEM: BOX BOUNDS ff ff pp
0.0000000000000000e+00 2.0000000000000000e+02
0.0000000000000000e+00 2.0000000000000000e+02
-5.0000000000000000e-01 5.0000000000000000e-01
ITEM: ATOMS id type x y vx vy fx fy v_dist
5 1 83.4818 79.4688 114.43 145.782 -1435.99 -1778.6 26.3511
10 1 104.176 79.1385 -27.7616 145.507 -912.885 -1851.75 21.2755
8 1 106.101 88.8469 -44.271 79.7175 136.764 -1026.59 12.7125
1 1 126.184 89.5215 -184.92 75.439 1350.1 -1602.21 28.203
7 1 106.632 99.6858 -47.2446 -3.91865 -493.562 -1467.31 6.6391
9 1 76.0819 102.025 169.159 -16.3232 -1486.43 -818.51 24.0037
6 1 87.3011 102.137 83.6349 -11.7007 108.219 -1342.07 12.8774
4 1 74.7623 112.305 177.021 -86.9632 -2026.28 114.493 28.0775
3 1 127.054 125.041 -186.736 -173.42 3072.45 628.622 36.8642
2 1 129.232 127.534 -197.573 -192.096 638.387 3472.87 40.1576
ITEM: TIMESTEP
1500
ITEM: NUMBER OF ATOMS
10
ITEM: BOX BOUNDS ff ff pp
0.0000000000000000e+00 2.0000000000000000e+02
0.0000000000000000e+00 2.0000000000000000e+02
-5.0000000000000000e-01 5.0000000000000000e-01
ITEM: ATOMS id type x y vx vy fx fy v_dist
5 1 84.5713 80.8533 103.764 131.739 -229.61 -1523.6 24.5895
10 1 103.923 80.5213 -23.0922 130.351 1152.32 -2420.33 19.8698
8 1 105.671 89.6135 -40.6307 73.4303 1187.38 -1301.59 11.8338
1 1 124.423 90.2421 -166.831 69.0684 1581.24 -1989.23 26.3002
7 1 106.186 99.6422 -41.9905 -4.42842 1233.2 1002.75 6.19637
9 1 77.6999 101.86 154.225 -15.9416 -1716.58 855.531 22.3776
6 1 88.1048 102.02 77.0284 -12.0659 -698.295 -1487.78 12.0655
4 1 76.4536 111.467 161.511 -79.7387 -692.673 -612.831 26.1901
3 1 125.28 123.382 -169.406 -158.564 1189.14 1762.91 34.4354
2 1 127.353 125.702 -178.323 -174.544 2171.48 2616.65 37.5334
ITEM: TIMESTEP
1600
ITEM: NUMBER OF ATOMS
10
ITEM: BOX BOUNDS ff ff pp
0.0000000000000000e+00 2.0000000000000000e+02
0.0000000000000000e+00 2.0000000000000000e+02
-5.0000000000000000e-01 5.0000000000000000e-01
ITEM: ATOMS id type x y vx vy fx fy v_dist
5 1 85.5541 82.1009 92.4202 118.992 -1487.4 -2509.71 23.0013
10 1 103.705 81.7641 -20.189 117.868 969.273 -755.429 18.6084
8 1 105.275 90.3123 -37.9984 66.8886 1530.22 241.131 11.0309
1 1 122.839 90.9023 -149.692 63.1076 1569.44 -2307.78 24.584
7 1 105.795 99.5925 -36.6505 -5.60934 -1102.64 1318.36 5.80965
9 1 79.1649 101.709 139.55 -14.4232 -549.385 -378.676 20.905
6 1 88.8431 101.91 70.7252 -9.49935 -1813.18 1765.07 11.3193
4 1 77.9853 110.701 144.943 -73.5256 -1779.67 -471.355 24.4778
3 1 123.664 121.871 -153.207 -143.77 2585.31 1648.28 32.2232
2 1 125.647 124.056 -162.451 -154.524 811.87 2529.27 35.1638
ITEM: TIMESTEP
1700
ITEM: NUMBER OF ATOMS
10
ITEM: BOX BOUNDS ff ff pp
0.0000000000000000e+00 2.0000000000000000e+02
0.0000000000000000e+00 2.0000000000000000e+02
-5.0000000000000000e-01 5.0000000000000000e-01
ITEM: ATOMS id type x y vx vy fx fy v_dist
5 1 86.4303 83.2259 83.4121 106.663 -115.267 -2391.67 21.5756
10 1 103.512 82.8773 -18.2847 105.35 -559.309 -1980.49 17.4791
8 1 104.909 90.9585 -35.1863 61.9877 -1247.93 -1788.32 10.2884
1 1 121.417 91.5019 -134.214 58.1203 1585.36 -1989.56 23.0419
7 1 105.458 99.5316 -31.3963 -6.1468 1099.12 1170.57 5.47765
9 1 80.4962 101.56 126.934 -14.4371 -2423.64 -890.848 19.5661
6 1 89.5173 101.823 64.1458 -8.12968 -443.232 -912.038 10.64
4 1 79.3557 110.005 130.015 -66.3363 -169.793 1198.78 22.9411
3 1 122.221 120.507 -135.234 -129.522 2193.11 582.939 30.2376
2 1 124.103 122.579 -146.246 -139.434 2344.66 559.217 33.0269
ITEM: TIMESTEP
1800
ITEM: NUMBER OF ATOMS
10
ITEM: BOX BOUNDS ff ff pp
0.0000000000000000e+00 2.0000000000000000e+02
0.0000000000000000e+00 2.0000000000000000e+02
-5.0000000000000000e-01 5.0000000000000000e-01
ITEM: ATOMS id type x y vx vy fx fy v_dist
5 1 87.2302 84.2404 76.87 96.431 -721.674 -1530.97 20.2838
10 1 103.335 83.8699 -17.1024 94.0921 -860.445 -2094.48 16.4713
8 1 104.576 91.5481 -31.2829 56.7411 1923.42 -880.015 9.61125
1 1 120.138 92.0524 -121.279 52.3363 1636.2 641.526 21.6498
7 1 105.158 99.4784 -28.0539 -4.90383 1108.18 -589.395 5.18428
9 1 81.6949 101.419 112.658 -13.6781 -1501.6 -66.591 18.3599
6 1 90.1262 101.756 57.4111 -5.73701 -1629.58 1618.27 10.0287
4 1 80.6 109.369 118.763 -61.6191 -1566.87 483.731 21.5437
3 1 120.935 119.258 -122.614 -119.834 2158.41 1077.21 28.4457
2 1 122.709 121.255 -132.994 -125.702 164.371 -329.352 31.1047
ITEM: TIMESTEP
1900
ITEM: NUMBER OF ATOMS
10
ITEM: BOX BOUNDS ff ff pp
0.0000000000000000e+00 2.0000000000000000e+02
0.0000000000000000e+00 2.0000000000000000e+02
-5.0000000000000000e-01 5.0000000000000000e-01
ITEM: ATOMS id type x y vx vy fx fy v_dist
5 1 87.9688 85.1597 71.1888 87.358 -1833.03 -1865.45 19.1046
10 1 103.178 84.7723 -15.5091 86.4106 104.202 73.0995 15.5557
8 1 104.285 92.0867 -27.3703 50.9531 -1108.7 -1114.46 8.99893
1 1 118.98 92.5492 -110.665 46.8841 2554.81 93.6099 20.3905
7 1 104.898 99.4305 -24.4129 -5.06152 -1088.82 -1417.99 4.93142
9 1 82.7635 101.282 102.062 -13.1998 21.8056 482.692 17.2841
6 1 90.6713 101.702 51.7504 -4.98305 -691.336 -135.721 9.48271
4 1 81.7306 108.776 107.115 -56.3622 -1760.92 2027.65 20.2678
3 1 119.771 118.119 -109.958 -107.833 2015.56 1462.45 26.8176
2 1 121.438 120.058 -121.65 -112.925 2780.36 2521.96 29.3585
ITEM: TIMESTEP
2000
ITEM: NUMBER OF ATOMS
10
ITEM: BOX BOUNDS ff ff pp
0.0000000000000000e+00 2.0000000000000000e+02
0.0000000000000000e+00 2.0000000000000000e+02
-5.0000000000000000e-01 5.0000000000000000e-01
ITEM: ATOMS id type x y vx vy fx fy v_dist
5 1 88.6435 85.9801 63.7284 77.2832 355.607 376.154 18.0424
10 1 103.022 85.5896 -15.1244 76.9376 -115.175 -362.575 14.7239
8 1 104.02 92.5612 -25.0666 44.1552 -385.864 -1518.53 8.45559
1 1 117.939 93.0038 -98.5136 44.325 731.631 936.096 19.2551
7 1 104.664 99.3883 -22.4518 -3.38308 635.929 -611.449 4.70408
9 1 83.7416 101.163 93.7343 -10.6102 -400.808 1690.37 16.3
6 1 91.163 101.657 47.3832 -3.837 505.272 520.657 8.99096
4 1 82.7546 108.234 97.3928 -51.86 359.786 2141.14 19.1102
3 1 118.716 117.094 -100.632 -97.25 1906.65 2053.06 25.3477
2 1 120.286 118.981 -109.214 -102.92 2125.36 822.368 27.7811
ITEM: TIMESTEP
2100
ITEM: NUMBER OF ATOMS
10
ITEM: BOX BOUNDS ff ff pp
0.0000000000000000e+00 2.0000000000000000e+02
0.0000000000000000e+00 2.0000000000000000e+02
-5.0000000000000000e-01 5.0000000000000000e-01
ITEM: ATOMS id type x y vx vy fx fy v_dist
5 1 89.2614 86.7 59.7857 67.2081 413.484 -1472.8 17.0941
10 1 102.874 86.3247 -13.4509 69.7399 1711.78 530.029 13.974
8 1 103.781 92.9754 -23.1276 39.4233 93.7331 -1927.61 7.97754
1 1 117.001 93.4254 -89.5792 40.7127 -755.12 828.459 18.228
7 1 104.448 99.3564 -20.2594 -3.33257 -1423.53 1008.64 4.49436
9 1 84.6346 101.07 84.8082 -8.33431 -1274.68 -35.7346 15.4026
6 1 91.6213 101.622 44.0807 -2.8734 -1789.64 773.886 8.53417
4 1 83.6787 107.737 88.0395 -46.7236 -488.218 1571.29 18.0625
3 1 117.755 116.179 -91.6613 -86.4744 122.48 -616.081 24.0207
2 1 119.252 117.999 -97.795 -93.1358 387.512 705.24 26.3551
ITEM: TIMESTEP
2200
ITEM: NUMBER OF ATOMS
10
ITEM: BOX BOUNDS ff ff pp
0.0000000000000000e+00 2.0000000000000000e+02
0.0000000000000000e+00 2.0000000000000000e+02
-5.0000000000000000e-01 5.0000000000000000e-01
ITEM: ATOMS id type x y vx vy fx fy v_dist
5 1 89.8378 87.3365 55.0925 60.1512 253.524 974.976 16.2369
10 1 102.744 86.9869 -12.0993 63.0809 933.099 304.541 13.2993
8 1 103.561 93.3625 -21.4799 37.7588 -663.167 -1983.73 7.53246
1 1 116.155 93.8116 -80.2732 36.9988 2101.12 -1554.04 17.2994
7 1 104.249 99.333 -19.4411 -1.34376 -1214.09 1486.58 4.30057
9 1 85.444 100.996 78.0295 -6.55483 -167.658 -870.795 14.5901
6 1 92.0443 101.605 40.7446 -1.32271 73.3887 121.681 8.11596
4 1 84.5204 107.287 80.2592 -42.9699 -2115.74 -1106.15 17.1091
3 1 116.884 115.355 -82.1192 -78.8289 -667.389 -132.258 22.8217
2 1 118.32 117.113 -88.5131 -84.7472 1839.41 1751.1 25.0694
ITEM: TIMESTEP
2300
ITEM: NUMBER OF ATOMS
10
ITEM: BOX BOUNDS ff ff pp
0.0000000000000000e+00 2.0000000000000000e+02
0.0000000000000000e+00 2.0000000000000000e+02
-5.0000000000000000e-01 5.0000000000000000e-01
ITEM: ATOMS id type x y vx vy fx fy v_dist
5 1 90.3594 87.9136 50.3089 54.5294 -1969.33 923.21 15.4603
10 1 102.619 87.589 -11.8639 58.0959 1151.13 -1985.69 12.6843
8 1 103.347 93.7258 -21.0902 34.5129 -480.027 517.866 7.11107
1 1 115.384 94.1463 -73.0416 30.8354 242.161 201.79 16.4601
7 1 104.066 99.3186 -16.9521 -1.7621 -1257.23 887.491 4.12308
9 1 86.1901 100.942 71.9539 -5.6034 -1101.38 1530.44 13.842
6 1 92.4329 101.588 37.0413 -2.14158 -1374.75 -608.704 7.73199
4 1 85.2836 106.871 72.9284 -40.3777 -2249.92 609.584 16.2415
3 1 116.095 114.604 -75.2418 -70.7456 -96.2028 1526.16 21.7334
2 1 117.479 116.304 -79.5456 -76.7576 2205.35 2241.73 23.9025
ITEM: TIMESTEP
2400
ITEM: NUMBER OF ATOMS
10
ITEM: BOX BOUNDS ff ff pp
0.0000000000000000e+00 2.0000000000000000e+02
0.0000000000000000e+00 2.0000000000000000e+02
-5.0000000000000000e-01 5.0000000000000000e-01
ITEM: ATOMS id type x y vx vy fx fy v_dist
5 1 90.8304 88.4357 44.5659 49.5641 -718.269 -1834.37 14.7586
10 1 102.496 88.149 -12.6478 53.8235 -689.804 -698.694 12.111
8 1 103.139 94.058 -20.2156 32.1375 1231.1 -1902.17 6.72035
1 1 114.687 94.4376 -67.462 27.3908 1737.65 370.715 15.7052
7 1 103.903 99.3029 -15.5832 -1.77088 -1180.45 104.279 3.96432
9 1 86.8624 100.886 63.9017 -5.25911 -1004.41 616.662 13.1674
6 1 92.7773 101.565 33.5355 -1.71476 -50.9245 501.082 7.39035
4 1 85.9862 106.483 67.942 -37.3482 903.655 91.2767 15.4407
3 1 115.391 113.926 -65.9961 -64.7707 1282.39 -917.987 20.7562
2 1 116.718 115.58 -72.2644 -67.654 1679.04 2277.53 22.8525
ITEM: TIMESTEP
2500
ITEM: NUMBER OF ATOMS
10
ITEM: BOX BOUNDS ff ff pp
0.0000000000000000e+00 2.0000000000000000e+02
0.0000000000000000e+00 2.0000000000000000e+02
-5.0000000000000000e-01 5.0000000000000000e-01
ITEM: ATOMS id type x y vx vy fx fy v_dist
5 1 91.2495 88.9029 39.6747 44.4861 134.624 760.11 14.1321
10 1 102.375 88.6571 -10.6393 48.155 1614.02 -877.209 11.5888
8 1 102.949 94.3607 -18.1189 28.7977 -294.403 1224.72 6.36399
1 1 114.053 94.7028 -59.9557 24.9856 359.219 844.701 15.0186
7 1 103.752 99.2901 -13.9517 -0.954505 -992.433 674.319 3.81873
9 1 87.4724 100.84 57.9251 -3.8483 843.611 -482.47 12.5557
6 1 93.0921 101.547 29.3782 -1.92309 -1194.59 963.907 7.07897
4 1 86.6301 106.123 61.5261 -34.7002 80.5498 1238.86 14.7053
3 1 114.763 113.307 -59.9162 -58.4507 -203.825 448.393 19.8754
2 1 116.037 114.94 -64.2064 -60.0553 -344.775 -922.111 21.9177
ITEM: TIMESTEP
2600
ITEM: NUMBER OF ATOMS
10
ITEM: BOX BOUNDS ff ff pp
0.0000000000000000e+00 2.0000000000000000e+02
0.0000000000000000e+00 2.0000000000000000e+02
-5.0000000000000000e-01 5.0000000000000000e-01
ITEM: ATOMS id type x y vx vy fx fy v_dist
5 1 91.6224 89.3305 35.5139 40.9288 -825.096 -211.198 13.5655
10 1 102.274 89.1061 -9.15537 41.8829 -1388.49 969.41 11.1286
8 1 102.784 94.6343 -15.7157 26.2534 -670.161 -129.235 6.04491
1 1 113.48 94.948 -54.9429 23.5754 -998.119 1128.7 14.3954
7 1 103.622 99.2849 -12.0821 -0.866853 34.8773 -1282.31 3.69186
9 1 88.0247 100.803 52.8521 -3.67911 1077.96 -129.4 12.0022
6 1 93.3733 101.539 26.5318 -0.489177 -739.619 -704.586 6.80303
4 1 87.2067 105.799 53.8351 -30.6929 -1403.5 -528.528 14.0463
3 1 114.197 112.749 -54.0519 -52.718 -542.926 165.366 19.0815
2 1 115.428 114.373 -57.3798 -53.7216 1776.54 1292.45 21.0853
ITEM: TIMESTEP
2700
ITEM: NUMBER OF ATOMS
10
ITEM: BOX BOUNDS ff ff pp
0.0000000000000000e+00 2.0000000000000000e+02
0.0000000000000000e+00 2.0000000000000000e+02
-5.0000000000000000e-01 5.0000000000000000e-01
ITEM: ATOMS id type x y vx vy fx fy v_dist
5 1 91.9579 89.7288 31.7669 37.6083 169.434 -1379.82 13.0451
10 1 102.181 89.5052 -9.13056 37.7076 -566.426 -206.798 10.7189
8 1 102.625 94.8841 -15.4627 24.3911 -1266.53 -570.8 5.75005
1 1 112.953 95.1712 -49.2531 21.3505 -103.739 -1683.9 13.8243
7 1 103.518 99.274 -9.24778 -0.299369 -457.731 1360.03 3.59231
9 1 88.5364 100.767 48.8235 -3.39332 -1197.71 -942.005 11.4892
6 1 93.6302 101.539 24.3417 0.863606 -106.532 1183.28 6.5531
4 1 87.7162 105.509 48.1327 -26.2804 -2042.2 -903.472 13.4627
3 1 113.676 112.254 -49.8243 -47.2907 760.617 -1056.03 18.3629
2 1 114.876 113.86 -52.8056 -48.0863 970.719 -397.938 20.3324
ITEM: TIMESTEP
2800
ITEM: NUMBER OF ATOMS
10
ITEM: BOX BOUNDS ff ff pp
0.0000000000000000e+00 2.0000000000000000e+02
0.0000000000000000e+00 2.0000000000000000e+02
-5.0000000000000000e-01 5.0000000000000000e-01
ITEM: ATOMS id type x y vx vy fx fy v_dist
5 1 92.2688 90.0929 30.3504 35.1048 -1179.1 -1708.88 12.5667
10 1 102.097 89.8693 -7.43363 35.3245 -557.731 -636.87 10.3454
8 1 102.472 95.1252 -14.7818 23.517 1074.97 860.585 5.46582
1 1 112.487 95.3742 -44.4276 19.5739 1326.58 619.876 13.3163
7 1 103.424 99.266 -9.59917 -1.73048 1667.95 -916.356 3.50185
9 1 89.0016 100.741 44.1289 -2.60936 302.341 74.5385 11.0234
6 1 93.8607 101.554 22.2509 1.82914 1100.81 1557.44 6.33293
4 1 88.1847 105.266 44.8511 -22.456 52.4775 1171.5 12.9358
3 1 113.209 111.796 -44.0953 -44.6262 -686.768 964.949 17.7098
2 1 114.364 113.412 -49.0957 -41.8313 1352.65 -1065.53 19.6523
ITEM: TIMESTEP
2900
ITEM: NUMBER OF ATOMS
10
ITEM: BOX BOUNDS ff ff pp
0.0000000000000000e+00 2.0000000000000000e+02
0.0000000000000000e+00 2.0000000000000000e+02
-5.0000000000000000e-01 5.0000000000000000e-01
ITEM: ATOMS id type x y vx vy fx fy v_dist
5 1 92.5552 90.4269 28.2349 31.6999 972.971 -471.461 12.1272
10 1 102.031 90.2069 -5.9772 31.775 -1301.3 -574.532 10.0016
8 1 102.332 95.3442 -13.0586 21.8809 -1334.14 -1360.97 5.20718
1 1 112.071 95.5659 -39.5169 17.9655 993.344 -132.437 12.8599
7 1 103.325 99.2547 -9.75904 -0.639573 1725.89 959.192 3.40775
9 1 89.4158 100.708 39.0826 -4.06006 198.748 114.484 10.6078
6 1 94.0841 101.573 21.9316 2.74942 -459.674 -249.717 6.12143
4 1 88.6101 105.058 40.1753 -19.6931 61.0973 1664.69 12.4625
3 1 112.79 111.377 -40.1812 -39.7792 722.132 1984.61 17.1174
2 1 113.902 113.021 -43.8678 -36.7492 1157.16 -196.406 19.0479
ITEM: TIMESTEP
3000
ITEM: NUMBER OF ATOMS
10
ITEM: BOX BOUNDS ff ff pp
0.0000000000000000e+00 2.0000000000000000e+02
0.0000000000000000e+00 2.0000000000000000e+02
-5.0000000000000000e-01 5.0000000000000000e-01
ITEM: ATOMS id type x y vx vy fx fy v_dist
5 1 92.8265 90.7346 25.5032 29.6957 836.444 -1732.04 11.7178
10 1 101.976 90.5041 -4.2255 28.2567 809.372 -955.111 9.69925
8 1 102.203 95.5515 -13.4838 19.6045 -1053.14 -1100.56 4.96394
1 1 111.683 95.745 -37.6784 18.435 1493.2 942.681 12.4334
7 1 103.235 99.2478 -8.56809 -0.797897 -612.161 -135.073 3.3216
9 1 89.7771 100.67 33.6029 -3.0401 -46.1912 -72.0644 10.2449
6 1 94.3001 101.601 20.5443 2.64074 -1098.6 1511.73 5.92058
4 1 88.9868 104.869 35.613 -17.9649 261.792 -1233.62 12.0416
3 1 112.405 110.994 -36.7552 -36.1038 -840.257 -538.721 16.576
2 1 113.488 112.67 -39.1337 -33.3293 242.929 1751.97 18.5058
ITEM: TIMESTEP
3100
ITEM: NUMBER OF ATOMS
10
ITEM: BOX BOUNDS ff ff pp
0.0000000000000000e+00 2.0000000000000000e+02
0.0000000000000000e+00 2.0000000000000000e+02
-5.0000000000000000e-01 5.0000000000000000e-01
ITEM: ATOMS id type x y vx vy fx fy v_dist
5 1 93.0666 91.0179 22.3736 26.4289 679.355 -671.936 11.3468
10 1 101.932 90.7687 -4.76133 25.7933 -1304.27 371.324 9.4314
8 1 102.073 95.7403 -13.1673 18.6272 -765.069 214.978 4.73718
1 1 111.322 95.9185 -34.2377 16.7339 -162.335 -24.3862 12.0355
7 1 103.145 99.2426 -8.4743 -0.323516 1235.21 -1171.55 3.23515
9 1 90.0988 100.639 30.7088 -3.53419 -969.708 454.965 9.92178
6 1 94.5039 101.631 19.2386 3.352 -1496.67 -109.564 5.73288
4 1 89.3279 104.69 32.2997 -18.1922 -1331.4 -676.46 11.657
3 1 112.06 110.647 -32.4815 -33.0332 -997.107 -211.939 16.0872
2 1 113.118 112.355 -35.4221 -29.2767 -1268.13 -748.613 18.0199
ITEM: TIMESTEP
3200
ITEM: NUMBER OF ATOMS
10
ITEM: BOX BOUNDS ff ff pp
0.0000000000000000e+00 2.0000000000000000e+02
0.0000000000000000e+00 2.0000000000000000e+02
-5.0000000000000000e-01 5.0000000000000000e-01
ITEM: ATOMS id type x y vx vy fx fy v_dist
5 1 93.2888 91.2666 21.8754 23.5455 -1529.96 871.939 11.0142
10 1 101.889 91.0105 -4.43875 22.3347 -550.068 -296.285 9.18573
8 1 101.946 95.9185 -12.3467 17.4888 -625.772 -1599.05 4.52163
1 1 110.992 96.0793 -31.182 15.3773 -1305.78 733.454 11.6702
7 1 103.059 99.2375 -9.38183 -0.407385 496.634 -672.797 3.15298
9 1 90.3969 100.609 28.9279 -2.28743 69.5723 541.091 9.62245
6 1 94.688 101.66 17.5124 2.39619 428.227 -1278.69 5.56544
4 1 89.6417 104.52 30.0978 -15.9263 -25.2899 604.162 11.3014
3 1 111.749 110.33 -30.0872 -29.9387 942.592 -498.297 15.6444
2 1 112.779 112.079 -31.7763 -26.0981 -671.897 621.882 17.5843
ITEM: TIMESTEP
3300
ITEM: NUMBER OF ATOMS
10
ITEM: BOX BOUNDS ff ff pp
0.0000000000000000e+00 2.0000000000000000e+02
0.0000000000000000e+00 2.0000000000000000e+02
-5.0000000000000000e-01 5.0000000000000000e-01
ITEM: ATOMS id type x y vx vy fx fy v_dist
5 1 93.4928 91.4879 19.1293 20.4359 488.714 -237.761 10.7144
10 1 101.844 91.218 -4.68442 19.0536 43.1826 1082.63 8.97357
8 1 101.822 96.0931 -13.086 16.1047 213.837 -1452.92 4.31083
1 1 110.697 96.2313 -27.8104 14.6215 1503.95 684.231 11.3417
7 1 102.969 99.2328 -8.31625 -0.322169 1063.79 63.7997 3.06637
9 1 90.6771 100.584 26.9421 -2.94121 283.753 -196.145 9.34123
6 1 94.8568 101.681 16.9907 1.42342 -488.829 1275.4 5.41087
4 1 89.9216 104.369 27.323 -14.5723 1114.11 499.426 10.9847
3 1 111.466 110.048 -27.6513 -26.668 -802.451 -498.201 15.2452
2 1 112.475 111.834 -29.4635 -22.6183 -46.7684 -497.936 17.1954
ITEM: TIMESTEP
3400
ITEM: NUMBER OF ATOMS
10
ITEM: BOX BOUNDS ff ff pp
0.0000000000000000e+00 2.0000000000000000e+02
0.0000000000000000e+00 2.0000000000000000e+02
-5.0000000000000000e-01 5.0000000000000000e-01
ITEM: ATOMS id type x y vx vy fx fy v_dist
5 1 93.6732 91.6859 16.3782 18.9246 -1306.18 -1068.34 10.4476
10 1 101.799 91.3992 -4.32653 17.6379 1599.57 1027.2 8.78693
8 1 101.695 96.2506 -12.2156 14.7255 -829.965 1054.31 4.11467