LAMMPS (29 Aug 2024 - Update 1)
  using 4 OpenMP thread(s) per MPI task
# LAMMPS Input Script: Gradually lower velocity for atoms closer to the center

# --- Initialization ---
units lj          # Use Lennard-Jones units
atom_style ellipsoid
dimension 3       # 3D simulation
boundary f f p    # Set boundary conditions: fixed (non-periodic) in x and y, periodic in z (standard for 2D)

# --- System Definition ---
variable box_size equal 200
variable half_box equal ${box_size}/2
variable half_box equal 200/2
region box block 0 ${box_size} 0 ${box_size} -0.5 0.5 units box # Define simulation box boundaries
region box block 0 200 0 ${box_size} -0.5 0.5 units box 
region box block 0 200 0 200 -0.5 0.5 units box 
create_box 1 box                     # Create the simulation box with 1 atom type
Created orthogonal box = (0 0 -0.5) to (200 200 0.5)
  1 by 1 by 1 MPI processor grid

create_atoms 1 random 100 12345 NULL overlap 3.9 maxtry 50
Created 100 atoms
  using lattice units in orthogonal box = (0 0 -0.5) to (200 200 0.5)
  create_atoms CPU = 0.001 seconds

# --- Define the circular slowing region and related variables ---
variable center_x equal ${half_box}
variable center_x equal 100
variable center_y equal ${half_box}
variable center_y equal 100
variable inner_radius equal 1.0   # Radius where maximum damping starts
variable outer_radius equal 50.0   # Radius where damping ends (beyond this, no damping)

# Group for atoms within the outer_radius of the damping region
region damping_region sphere ${center_x} ${center_y} 0.0 ${outer_radius} units box
region damping_region sphere 100 ${center_y} 0.0 ${outer_radius} units box
region damping_region sphere 100 100 0.0 ${outer_radius} units box
region damping_region sphere 100 100 0.0 50 units box
group damp_group region damping_region
21 atoms in group damp_group

# Set ellipsoid shape
# This sets the semi-axes lengths for a sphere
set type 1 shape 0.5 0.5 0.5
Setting atom values ...
  100 settings made for shape

set atom 1 mass 1.0                           # Set mass of atom type 1
Setting atom values ...
  1 settings made for mass

# --- Variables for initial velocities ---
variable vel_scale equal 10              # Scaling factor for initial velocity magnitude (adjust if needed)

# --- Interactions ---
pair_style lj/cut 2.5
pair_coeff 1 1 1.0 1.0 2.5

# --- Initial Velocities --
variable vx_init atom v_vel_scale*(${half_box}-x)
variable vx_init atom v_vel_scale*(100-x)
variable vy_init atom v_vel_scale*(${half_box}-y)
variable vy_init atom v_vel_scale*(100-y)
# Apply the calculated velocities to all atoms, initializing at zero total linear momentum
velocity all set v_vx_init v_vy_init 0.0 sum yes
# velocity damp_group set 0.0 0.0 0.0 sum no
# velocity damp_group ramp vx 1 0 x ${center_x}-${outer_radius} ${center_x}+${outer_radius} sum no
# velocity damp_group ramp vy 1 0 y ${center_y}-${outer_radius} ${center_y}+${outer_radius} sum no

variable min_x equal ${center_x}-${outer_radius}
variable min_x equal 100-${outer_radius}
variable min_x equal 100-50
variable max_x equal ${center_x}+${outer_radius}
variable max_x equal 100+${outer_radius}
variable max_x equal 100+50
variable min_y equal ${center_y}-${outer_radius}
variable min_y equal 100-${outer_radius}
variable min_y equal 100-50
variable max_y equal ${center_y}-${outer_radius}
variable max_y equal 100-${outer_radius}
variable max_y equal 100-50

velocity damp_group ramp vx 1 0 x ${min_x} ${max_x} sum yes
velocity damp_group ramp vx 1 0 x 50 ${max_x} sum yes
velocity damp_group ramp vx 1 0 x 50 150 sum yes
velocity damp_group ramp vy 1 0 y ${min_y} ${max_y} sum yes
velocity damp_group ramp vy 1 0 y 50 ${max_y} sum yes
velocity damp_group ramp vy 1 0 y 50 50 sum yes


#ramp args = vdim vlo vhi dim clo chi
#  vdim = vx or vy or vz
#  vlo,vhi = lower and upper velocity value (velocity units)
#  dim = x or y or z
#  clo,chi = lower and upper coordinate bound (distance units)


# --- Velocity Damping based on distance ---
# Calculate the distance of each atom from the center of the slowing region
variable dist atom sqrt((x-${center_x})^2+(y-${center_y})^2)
variable dist atom sqrt((x-100)^2+(y-${center_y})^2)
variable dist atom sqrt((x-100)^2+(y-100)^2)

# Calculate a damping coefficient (gamma) that increases as distance decreases
# - Be 0 when dist >= outer_radius
# - Be 1 when dist <= inner_radius
# - Linearly interpolate between 0 and 1 for inner_radius < dist < outer_radius
variable damping_coeff atom ramp(v_dist,${inner_radius},${outer_radius},1.0,0.0)
variable damping_coeff atom ramp(v_dist,1,${outer_radius},1.0,0.0)
variable damping_coeff atom ramp(v_dist,1,50,1.0,0.0)

# We want damping_coeff to be 0 at outer_radius, and max_damping at inner_radius
# max_damping * (outer_radius - dist) / (outer_radius - inner_radius)
variable max_damping equal 1.0 # Adjust this value to control the maximum damping strength

# variable gamma_val atom "v_max_damping * (max(0.0, ${outer_radius}-v_dist) / (${outer_radius}-${inner_radius}))"
variable gamma_val equal 0.1*step

# Apply viscous damping using fix viscous
# The 'gamma' (damping coefficient) is applied to each component of velocity.
# A higher gamma value means stronger damping.
# We apply it to 'damp_group' which includes all atoms within outer_radius


# --- Integration ---
fix 1 all nve
fix 2 all langevin 5.0 0.1 0.1 48279
# fix 3 damp_group viscous ${gamma_val}

# --- Simulation Settings ---
timestep 0.00001 # Timestep for integration (in lj time units) - Keep it small for stability
thermo 100     # Output thermodynamic info every 100 steps
thermo_style custom step temp pe ke etotal press vol atoms # Added 'atoms' to check count

# --- Output ---
# Dump atom positions and velocities every 100 steps to log.lammpstrj file
dump 1 all custom 100 central_slowed.in.lammpstrj id type x y vx vy fx fy v_dist

# --- Run Simulation ---
run 100000
Generated 0 of 0 mixed pair_coeff terms from geometric mixing rule
Neighbor list info ...
  update: every = 1 steps, delay = 0 steps, check = yes
  max neighbors/atom: 2000, page size: 100000
  master list distance cutoff = 2.8
  ghost atom cutoff = 2.8
  binsize = 1.4, bins = 143 143 1
  1 neighbor lists, perpetual/occasional/extra = 1 0 0
  (1) pair lj/cut, perpetual
      attributes: half, newton on
      pair build: half/bin/atomonly/newton
      stencil: half/bin/3d
      bin: standard
Per MPI rank memory allocation (min/avg/max) = 9.665 | 9.665 | 9.665 Mbytes
   Step          Temp          PotEng         KinEng         TotEng         Press          Volume        Atoms   
         0   219779.52     -0.061523437    326372.58      326372.52      543.974        40000                100 
       100   215436.68     -0.061523437    319923.47      319923.41      533.22548      40000                100 
       200   211177.75     -0.061523437    313598.96      313598.9       522.68463      40000                100 
       300   206967.92     -0.061523437    307347.36      307347.3       512.2653       40000                100 
       400   202871.84     -0.061523437    301264.68      301264.62      502.1275       40000                100 
       500   198863.16     -0.061523437    295311.79      295311.72      492.20601      40000                100 
       600   194928.25     -0.061523437    289468.45      289468.39      482.46711      40000                100 
       700   191089.16     -0.061523437    283767.41      283767.35      472.96538      40000                100 
       800   187313.59     -0.061523437    278160.68      278160.62      463.62083      40000                100 
       900   183623.17     -0.061523437    272680.41      272680.35      454.48705      40000                100 
      1000   180011.08     -0.061523437    267316.45      267316.39      445.54711      40000                100 
      1100   176412.2      -0.061523437    261972.11      261972.05      436.63988      40000                100 
      1200   172943.87     -0.061523437    256821.64      256821.58      428.05577      40000                100 
      1300   169531.89     -0.061523437    251754.86      251754.8       419.61113      40000                100 
      1400   166192.89     -0.061523437    246796.44      246796.38      411.3471       40000                100 
      1500   162893.04     -0.061523437    241896.17      241896.11      403.17998      40000                100 
      1600   159657.51     -0.061523437    237091.41      237091.35      395.17204      40000                100 
      1700   156508.23     -0.061523437    232414.72      232414.66      387.37757      40000                100 
      1800   153393.66     -0.061523437    227789.58      227789.52      379.669        40000                100 
      1900   150347.88     -0.061523437    223266.61      223266.55      372.13071      40000                100 
      2000   147388.61     -0.061523437    218872.08      218872.02      364.8065       40000                100 
      2100   144483.88     -0.061523437    214558.57      214558.5       357.61731      40000                100 
      2200   141607.37     -0.061523437    210286.95      210286.89      350.49795      40000                100 
      2300   138798.58     -0.061523437    206115.89      206115.82      343.54617      40000                100 
      2400   136046.09     -0.061523437    202028.45      202028.39      336.73378      40000                100 
      2500   133351.06     -0.061523437    198026.32      198026.26      330.06356      40000                100 
      2600   130693.81     -0.061523437    194080.31      194080.25      323.48688      40000                100 
      2700   128109.95     -0.061523437    190243.28      190243.22      317.09183      40000                100 
      2800   125598.28     -0.061523437    186513.44      186513.38      310.87543      40000                100 
      2900   123117.28     -0.061523437    182829.17      182829.11      304.73497      40000                100 
      3000   120676.38     -0.061523437    179204.43      179204.37      298.69375      40000                100 
      3100   118273.9      -0.061523437    175636.75      175636.69      292.74761      40000                100 
      3200   115940.81     -0.061523437    172172.1       172172.04      286.9732       40000                100 
      3300   113659.44     -0.061523437    168784.28      168784.21      281.32682      40000                100 
      3400   111430.22     -0.061523437    165473.88      165473.82      275.8095       40000                100 
      3500   109202.05     -0.061523437    162165.04      162164.98      270.29477      40000                100 
      3600   107028.72     -0.061523437    158937.64      158937.58      264.91577      40000                100 
      3700   104899.19     -0.061523437    155775.3       155775.24      259.6452       40000                100 
      3800   102833.79     -0.061523437    152708.18      152708.12      254.53333      40000                100 
      3900   100788.7      -0.061523437    149671.21      149671.15      249.47172      40000                100 
      4000   98784.819     -0.061523437    146695.46      146695.39      244.51212      40000                100 
      4100   96839.937     -0.061523437    143807.31      143807.24      239.69854      40000                100 
      4200   94909.917     -0.061523437    140941.23      140941.17      234.92174      40000                100 
      4300   93041.559     -0.061523437    138166.71      138166.65      230.29756      40000                100 
      4400   91209.586     -0.061523437    135446.24      135446.17      225.76342      40000                100 
      4500   89403.886     -0.061523437    132764.77      132764.71      221.29432      40000                100 
      4600   87639.306     -0.061523437    130144.37      130144.31      216.92698      40000                100 
      4700   85914.212     -0.061693806    127582.61      127582.54      212.65737      40000                100 
      4800   84206.574     -0.061878204    125046.76      125046.7       208.43097      40000                100 
      4900   82532.991     -0.061902568    122561.49      122561.43      204.28885      40000                100 
      5000   80894.238     -0.062091961    120127.94      120127.88      200.23293      40000                100 
      5100   79315.622     -0.062129627    117783.7       117783.64      196.32586      40000                100 
      5200   77740.404     -0.062169799    115444.5       115444.44      192.4272       40000                100 
      5300   76181.936     -0.062385537    113130.18      113130.11      188.56998      40000                100 
      5400   74659.053     -0.062443721    110868.69      110868.63      184.80085      40000                100 
      5500   73182.212     -0.062505781    108675.58      108675.52      181.14567      40000                100 
      5600   71736.335     -0.06257222     106528.46      106528.4       177.56712      40000                100 
      5700   70308.305     -0.062808211    104407.83      104407.77      174.03275      40000                100 
      5800   68910.565     -0.06306325     102332.19      102332.13      170.57334      40000                100 
      5900   67541.232     -0.063164623    100298.73      100298.67      167.18424      40000                100 
      6000   66197.766     -0.063273149    98303.682      98303.619      163.85916      40000                100 
      6100   64896.409     -0.063390129    96371.168      96371.104      160.6383       40000                100 
      6200   63615.987     -0.063843321    94469.741      94469.677      157.46925      40000                100 
      6300   62357.966     -0.064163764    92601.58       92601.515      154.35565      40000                100 
      6400   61112.771     -0.064332629    90752.465      90752.401      151.27379      40000                100 
      6500   59899.726     -0.0645115      88951.094      88951.029      148.27151      40000                100 
      6600   58712.49      -0.064701586    87188.048      87187.983      145.33309      40000                100 
      6700   57542.333     -0.064903604    85450.364      85450.3        142.43695      40000                100 
      6800   56399.788     -0.065286627    83753.685      83753.62       139.60915      40000                100 
      6900   55299.128     -0.065523745    82119.205      82119.139      136.88502      40000                100 
      7000   54202.954     -0.06577347     80491.386      80491.32       134.17199      40000                100 
      7100   53137.977     -0.066034713    78909.896      78909.83       131.53617      40000                100 
      7200   52101.126     -0.066804975    77370.171      77370.105      128.96996      40000                100 
      7300   51061.679     -0.067118997    75826.594      75826.527      126.39733      40000                100 
      7400   50050.411     -0.067451147    74324.86       74324.793      123.89444      40000                100 
      7500   49054.564     -0.067969119    72846.027      72845.959      121.42971      40000                100 
      7600   48088.139     -0.06834541     71410.886      71410.817      119.03781      40000                100 
      7700   47127.814     -0.068743044    69984.804      69984.736      116.661        40000                100 
      7800   46194.745     -0.069335778    68599.196      68599.127      114.35165      40000                100 
      7900   45288.164     -0.069799589    67252.923      67252.853      112.10786      40000                100 
      8000   44393.405     -0.070465891    65924.207      65924.136      109.89333      40000                100 
      8100   43514.096     -0.07116267     64618.433      64618.362      107.71704      40000                100 
      8200   42651.254     -0.071731893    63337.112      63337.04       105.5815       40000                100 
      8300   41805.029     -0.072329675    62080.468      62080.395      103.48709      40000                100 
      8400   40985.699     -0.072959968    60863.763      60863.69       101.45925      40000                100 
      8500   40160.645     -0.073956737    59638.558      59638.484      99.417233      40000                100 
      8600   39375.725     -0.074668537    58472.952      58472.877      97.474554      40000                100 
      8700   38583.75      -0.075415862    57296.869      57296.794      95.514413      40000                100 
      8800   37813.536     -0.07651752     56153.101      56153.025      93.608128      40000                100 
      8900   37067.886     -0.07751544     55045.81       55045.732      91.762638      40000                100 
      9000   36339.777     -0.078407952    53964.568      53964.49       89.960564      40000                100 
      9100   35614.625     -0.079341473    52887.718      52887.639      88.16581       40000                100 
      9200   34916.652     -0.080484725    51851.229      51851.148      86.438323      40000                100 
      9300   34206.39      -0.081513383    50796.489      50796.407      84.680419      40000                100 
      9400   33526.909     -0.082731315    49787.46       49787.377      82.998699      40000                100 
      9500   32875.417     -0.083826012    48819.995      48819.911      81.386252      40000                100 
      9600   32231.494     -0.084997398    47863.769      47863.684      79.792537      40000                100 
      9700   31582.774     -0.08638807     46900.419      46900.332      78.186949      40000                100 
      9800   30950.259     -0.087854412    45961.134      45961.047      76.62147       40000                100 
      9900   30340.628     -0.089401624    45055.833      45055.743      75.112628      40000                100 
     10000   29744.536     -0.091011198    44170.636      44170.545      73.637294      40000                100 
     10100   29152.63      -0.092496516    43291.655      43291.563      72.172322      40000                100 
     10200   28568.852     -0.09405585     42424.745      42424.651      70.727467      40000                100 
     10300   27999.878     -0.096002115    41579.819      41579.723      69.319251      40000                100 
     10400   27447.688     -0.097650821    40759.817      40759.72       67.952578      40000                100 
     10500   26915.746     -0.09966484     39969.882      39969.783      66.636016      40000                100 
     10600   26379.451     -0.10135307     39173.485      39173.384      65.308686      40000                100 
     10700   25861.704     -0.10317273     38404.631      38404.528      64.027261      40000                100 
     10800   25355.784     -0.10493803     37653.339      37653.234      62.77511       40000                100 
     10900   24859.724     -0.1068903      36916.69       36916.583      61.547366      40000                100 
     11000   24365.039     -0.10829313     36182.083      36181.975      60.323029      40000                100 
     11100   23880.659     -0.10953432     35462.778      35462.668      59.124202      40000                100 
     11200   23404.218     -0.11027148     34755.264      34755.154      57.945034      40000                100 
     11300   22940.165     -0.11025194     34066.145      34066.035      56.796535      40000                100 
     11400   22478.577     -0.10913681     33380.686      33380.577      55.654149      40000                100 
     11500   22033.242     -0.10687563     32719.364      32719.257      54.552005      40000                100 
     11600   21599.596     -0.10283874     32075.399      32075.297      53.47881       40000                100 
     11700   21172.915     -0.097175166    31441.779      31441.682      52.422878      40000                100 
     11800   20753.057     -0.088501429    30818.29       30818.202      51.383862      40000                100 
     11900   20338.257     -0.07665325     30202.311      30202.235      50.357397      40000                100 
     12000   19935.33      -0.061095783    29603.964      29603.903      49.360362      40000                100 
     12100   19533.487     -0.041657777    29007.228      29007.186      48.366053      40000                100 
     12200   19145.518     -0.018145623    28431.094      28431.076      47.406126      40000                100 
     12300   18766.622      0.0096852711   27868.434      27868.443      46.4687        40000                100 
     12400   18390.309      0.041296357    27309.608      27309.65       45.537706      40000                100 
     12500   18023.574      0.07612981     26765.007      26765.083      44.630452      40000                100 
     12600   17668.792      0.11517236     26238.156      26238.271      43.752821      40000                100 
     12700   17322.787      0.15488812     25724.339      25724.493      42.89692       40000                100 
     12800   16984.338      0.19430537     25221.742      25221.936      42.059715      40000                100 
     12900   16651.008      0.22976924     24726.746      24726.976      41.235134      40000                100 
     13000   16322.65       0.26013519     24239.135      24239.395      40.422804      40000                100 
     13100   16000.908      0.28118236     23761.349      23761.63       39.626748      40000                100 
     13200   15681.335      0.28979838     23286.783      23287.072      38.835928      40000                100 
     13300   15367.935      0.28481631     22821.383      22821.668      38.060239      40000                100 
     13400   15065.484      0.27015088     22372.244      22372.514      37.311546      40000                100 
     13500   14772.871      0.24590979     21937.713      21937.959      36.587101      40000                100 
     13600   14478.655      0.21056172     21500.802      21501.013      35.858573      40000                100 
     13700   14198.346      0.16834856     21084.544      21084.712      35.16439       40000                100 
     13800   13919.038      0.1207267      20669.772      20669.892      34.472622      40000                100 
     13900   13650.851      0.071041356    20271.514      20271.585      33.808357      40000                100 
     14000   13382.162      0.024050178    19872.51       19872.534      33.142878      40000                100 
     14100   13112.563     -0.020116882    19472.156      19472.136      32.475179      40000                100 
     14200   12847.361     -0.059461501    19078.332      19078.272      31.818411      40000                100 
     14300   12599.79      -0.094322613    18710.688      18710.593      31.205333      40000                100 
     14400   12355.674     -0.12440738     18348.176      18348.052      30.60086       40000                100 
     14500   12110.684     -0.14942503     17984.366      17984.216      29.994276      40000                100 
     14600   11874.572     -0.17106918     17633.739      17633.568      29.409706      40000                100 
     14700   11631.267     -0.18862952     17272.432      17272.243      28.807381      40000                100 
     14800   11397.243     -0.20328968     16924.905      16924.702      28.228061      40000                100 
     14900   11177.074     -0.21551102     16597.955      16597.739      27.683069      40000                100 
     15000   10955.249     -0.22448254     16268.545      16268.321      27.134015      40000                100 
     15100   10746.394     -0.2316453      15958.395      15958.163      26.617085      40000                100 
     15200   10536.259     -0.23688245     15646.344      15646.107      26.097014      40000                100 
     15300   10327.501     -0.2398872      15336.339      15336.099      25.580378      40000                100 
     15400   10124.248     -0.24077694     15034.508      15034.267      25.077394      40000                100 
     15500   9922.411      -0.23946526     14734.78       14734.541      24.577948      40000                100 
     15600   9721.0578     -0.23511491     14435.771      14435.536      24.079733      40000                100 
     15700   9526.0496     -0.22837806     14146.184      14145.955      23.597253      40000                100 
     15800   9336.9289     -0.21847938     13865.339      13865.121      23.129382      40000                100 
     15900   9150.9352     -0.20581098     13589.139      13588.933      22.669287      40000                100 
     16000   8962.4083     -0.18924538     13309.176      13308.987      22.202969      40000                100 
     16100   8787.6467     -0.16944386     13049.655      13049.486      21.770761      40000                100 
     16200   8616.3623     -0.14791816     12795.298      12795.15       21.347181      40000                100 
     16300   8446.418      -0.12397346     12542.931      12542.807      20.926946      40000                100 
     16400   8281.6771     -0.095861348    12298.29       12298.195      20.519637      40000                100 
     16500   8124.0138     -0.066569498    12064.161      12064.094      20.129862      40000                100 
     16600   7964.5037     -0.037630234    11827.288      11827.25       19.735519      40000                100 
     16700   7806.4502     -0.0092663318   11592.579      11592.569      19.34478       40000                100 
     16800   7647.9358      0.017331647    11357.185      11357.202      18.952883      40000                100 
     16900   7499.1199      0.039729694    11136.193      11136.233      18.584953      40000                100 
     17000   7349.0191      0.054426491    10913.293      10913.348      18.213763      40000                100 
     17100   7202.3722      0.068237555    10695.523      10695.591      17.85112       40000                100 
     17200   7067.6851      0.078139871    10495.512      10495.591      17.518045      40000                100 
     17300   6926.0984      0.08743282     10285.256      10285.344      17.167886      40000                100 
     17400   6790.2864      0.095027458    10083.575      10083.67       16.832006      40000                100 
     17500   6654.3303      0.1053576      9881.6805      9881.7858      16.495802      40000                100 
     17600   6526.6678      0.12153604     9692.1016      9692.2232      16.180195      40000                100 
     17700   6397.1274      0.14390452     9499.7342      9499.8781      15.860005      40000                100 
     17800   6273.1467      0.17404222     9315.6228      9315.7969      15.553659      40000                100 
     17900   6147.1789      0.21460594     9128.5606      9128.7752      15.242506      40000                100 
     18000   6025.2353      0.26605072     8947.4744      8947.7404      14.941427      40000                100 
     18100   5906.3935      0.32366832     8770.9943      8771.318       14.648088      40000                100 
     18200   5792.1752      0.38285801     8601.3801      8601.763       14.366216      40000                100 
     18300   5674.482       0.43579905     8426.6057      8427.0415      14.075676      40000                100 
     18400   5567.0982      0.47729708     8267.1408      8267.6181      13.810533      40000                100 
     18500   5453.5155      0.50481731     8098.4704      8098.9753      13.529895      40000                100 
     18600   5342.3634      0.51121734     7933.4097      7933.9209      13.25506       40000                100 
     18700   5234.0781      0.5017243      7772.606       7773.1077      12.987153      40000                100 
     18800   5128.7359      0.47493834     7616.1728      7616.6477      12.726353      40000                100 
     18900   5028.6111      0.44168381     7467.4874      7467.9291      12.478399      40000                100 
     19000   4928.5865      0.40736655     7318.9509      7319.3583      12.230676      40000                100 
     19100   4832.0901      0.37332911     7175.6538      7176.0271      11.991692      40000                100 
     19200   4734.1451      0.34518484     7030.2055      7030.5507      11.74919       40000                100 
     19300   4644.9464      0.32686678     6897.7454      6898.0723      11.528452      40000                100 
     19400   4553.355       0.32347814     6761.7322      6762.0557      11.301955      40000                100 
     19500   4465.5886      0.3358111      6631.3991      6631.7349      11.085096      40000                100 
     19600   4377.1625      0.3693491      6500.0862      6500.4556      10.866836      40000                100 
     19700   4292.9514      0.42795337     6375.0329      6375.4608      10.659278      40000                100 
     19800   4209.2431      0.51663697     6250.7261      6251.2427      10.453293      40000                100 
     19900   4127.892       0.64362302     6129.9196      6130.5632      10.253546      40000                100 
     20000   4045.0493      0.81539153     6006.8983      6007.7137      10.050574      40000                100 
     20100   3965.3725      1.0416687      5888.5782      5889.6198      9.8560095      40000                100 
     20200   3882.9832      1.3048383      5766.2301      5767.535       9.6551112      40000                100 
     20300   3806.1472      1.5921456      5652.1286      5653.7207      9.4682092      40000                100 
     20400   3730.9034      1.8396792      5540.3916      5542.2313      9.2848257      40000                100 
     20500   3653.9887      1.9905962      5426.1732      5428.1638      9.0963024      40000                100 
     20600   3583.7851      2.0145264      5321.9208      5323.9354      8.9230762      40000                100 
     20700   3511.1319      1.9303702      5214.0309      5215.9612      8.7426617      40000                100 
     20800   3442.1783      1.7755097      5111.6348      5113.4103      8.5706714      40000                100 
     20900   3374.9437      1.6137827      5011.7915      5013.4052      8.402856       40000                100 
     21000   3308.691       1.4781202      4913.4061      4914.8843      8.2377493      40000                100 
     21100   3242.8274      1.3898092      4815.5987      4816.9886      8.0741094      40000                100 
     21200   3179.5251      1.3528766      4721.5948      4722.9477      7.9173597      40000                100 
     21300   3118.5502      1.3650783      4631.0471      4632.4122      7.7669029      40000                100 
     21400   3056.4338      1.4303437      4538.8042      4540.2346      7.6141935      40000                100 
     21500   2997.6919      1.5560242      4451.5725      4453.1286      7.4704947      40000                100 
     21600   2938.7351      1.7453177      4364.0216      4365.7669      7.3269467      40000                100 
     21700   2882.5552      2.0067284      4280.5945      4282.6012      7.1910389      40000                100 
     21800   2826.9375      2.3214276      4198.0021      4200.3236      7.0570805      40000                100 
     21900   2770.099       2.6869264      4113.597       4116.284       6.9206453      40000                100 
     22000   2714.6286      3.0684939      4031.2234      4034.2919      6.787758       40000                100 
     22100   2661.8296      3.4280041      3952.8169      3956.2449      6.6612534      40000                100 
     22200   2608.8871      3.7217135      3874.1974      3877.9191      6.5337064      40000                100 
     22300   2557.7548      3.9547718      3798.2659      3802.2206      6.4100157      40000                100 
     22400   2505.8194      4.1484555      3721.1418      3725.2902      6.2839216      40000                100 
     22500   2457.3452      4.3448829      3649.1577      3653.5026      6.1663952      40000                100 
     22600   2409.2089      4.6116371      3577.6753      3582.2869      6.0503946      40000                100 
     22700   2360.4591      4.9891041      3505.2817      3510.2708      5.9339632      40000                100 
     22800   2313.7678      5.4135576      3435.9452      3441.3587      5.8230619      40000                100 
     22900   2268.6541      5.706252       3368.9514      3374.6577      5.714654       40000                100 
     23000   2225.6378      5.6443845      3305.0721      3310.7165      5.6077451      40000                100 
     23100   2180.5973      5.1888354      3238.187       3243.3758      5.4917462      40000                100 
     23200   2137.8405      4.4920856      3174.6931      3179.1852      5.3788707      40000                100 
     23300   2096.2339      3.7639846      3112.9074      3116.6714      5.2684802      40000                100 
     23400   2056.8252      3.134033       3054.3854      3057.5194      5.1645054      40000                100 
     23500   2018.1822      2.6291318      2997.0005      2999.6296      5.0637058      40000                100 
     23600   1978.8482      2.2156963      2938.5896      2940.8053      4.9621439      40000                100 
     23700   1940.184       1.882949       2881.1732      2883.0562      4.8631015      40000                100 
     23800   1901.8295      1.6300459      2824.2168      2825.8469      4.7656841      40000                100 
     23900   1865.7017      1.4386861      2770.5671      2772.0058      4.6744543      40000                100 
     24000   1829.4563      1.3056599      2716.7425      2718.0482      4.5835773      40000                100 
     24100   1791.1095      1.2212893      2659.7976      2661.0189      4.4880444      40000                100 
     24200   1753.4826      1.1883374      2603.9217      2605.11        4.3948738      40000                100 
     24300   1720.0054      1.2075067      2554.208       2555.4155      4.3125704      40000                100 
     24400   1685.0822      1.2817691      2502.3471      2503.6289      4.2273114      40000                100 
     24500   1652.4473      1.4227185      2453.8842      2455.307       4.148471       40000                100 
     24600   1622.2508      1.6480471      2409.0424      2410.6905      4.0765936      40000                100 
     24700   1591.2821      1.9585897      2363.0539      2365.0125      4.0037252      40000                100 
     24800   1560.2836      2.3599626      2317.0212      2319.3812      3.9317818      40000                100 
     24900   1529.9609      2.8325752      2271.992       2274.8245      3.8623024      40000                100 
     25000   1500.2411      3.3788574      2227.8581      2231.2369      3.7951194      40000                100 
     25100   1468.16        4.0046741      2180.2176      2184.2223      3.7229712      40000                100 
     25200   1437.5197      4.7149555      2134.7168      2139.4318      3.6552819      40000                100 
     25300   1407.5915      5.5191856      2090.2734      2095.7926      3.5903374      40000                100 
     25400   1378.2411      6.40604        2046.688       2053.094       3.5276624      40000                100 
     25500   1348.2492      7.2988564      2002.1501      2009.449       3.4634541      40000                100 
     25600   1322.0217      8.0496234      1963.2022      1971.2518      3.4070866      40000                100 
     25700   1296.5438      8.5146091      1925.3676      1933.8822      3.3496349      40000                100 
     25800   1270.2875      8.6005428      1886.3769      1894.9774      3.286385       40000                100 
     25900   1244.8286      8.4137758      1848.5704      1856.9842      3.2223371      40000                100 
     26000   1222.0514      8.2088478      1814.7463      1822.9552      3.1647765      40000                100 
     26100   1198.2953      8.3195478      1779.4685      1787.788       3.1080601      40000                100 
     26200   1176.0409      8.978657       1746.4208      1755.3994      3.0607071      40000                100 
     26300   1151.8286      10.193516      1710.4655      1720.659       3.0142367      40000                100 
     26400   1126.6256      11.64729       1673.039       1684.6863      2.9677855      40000                100 
     26500   1101.7602      12.888772      1636.1138      1649.0026      2.9200304      40000                100 
     26600   1082.1524      13.576456      1606.9964      1620.5728      2.879636       40000                100 
     26700   1060.7357      13.614422      1575.1925      1588.807       2.8281097      40000                100 
     26800   1040.2756      13.031626      1544.8093      1557.841       2.7726073      40000                100 
     26900   1020.4092      12.203993      1515.3077      1527.5117      2.7160865      40000                100 
     27000   1000.8776      11.553984      1486.3032      1497.8572      2.6622555      40000                100 
     27100   980.31041      11.388785      1455.761       1467.1497      2.6108756      40000                100 
     27200   959.17629      11.83409       1424.3768      1436.2109      2.5644335      40000                100 
     27300   940.96146      12.993645      1397.3278      1410.3214      2.5326291      40000                100 
     27400   923.59748      15.064346      1371.5423      1386.6066      2.5123266      40000                100 
     27500   905.08812      18.091659      1344.0559      1362.1475      2.4989355      40000                100 
     27600   887.08435      21.01769       1317.3203      1338.338       2.4857226      40000                100 
     27700   869.04666      21.872107      1290.5343      1312.4064      2.4513029      40000                100 
     27800   851.1867       20.972027      1264.0122      1284.9843      2.3993877      40000                100 
     27900   834.03485      20.20436       1238.5418      1258.7461      2.3504546      40000                100 
     28000   819.12531      20.288615      1216.4011      1236.6897      2.3157011      40000                100 
     28100   802.27165      20.996673      1191.3734      1212.3701      2.2824858      40000                100 
     28200   784.90063      21.860663      1165.5774      1187.4381      2.2495275      40000                100 
     28300   769.599        22.57478       1142.8545      1165.4293      2.2201002      40000                100 
     28400   754.33712      22.993619      1120.1906      1143.1842      2.1876963      40000                100 
     28500   738.2195       23.05679       1096.256       1119.3128      2.1494716      40000                100 
     28600   723.14264      22.833632      1073.8668      1096.7005      2.1108784      40000                100 
     28700   709.76636      22.661427      1054.003       1076.6645      2.0770176      40000                100 
     28800   695.20043      23.097437      1032.3726      1055.4701      2.0464596      40000                100 
     28900   681.75216      24.356531      1012.402       1036.7585      2.0270929      40000                100 
     29000   667.61227      26.008609      991.40422      1017.4128      2.0100846      40000                100 
     29100   654.07768      27.2201        971.30535      998.52545      1.990127       40000                100 
     29200   639.6011       27.483197      949.80764      977.29084      1.9581938      40000                100 
     29300   626.64434      26.887713      930.56685      957.45456      1.9213273      40000                100 
     29400   614.8081       26.138778      912.99003      939.1288       1.8857697      40000                100 
     29500   602.03555      26.433752      894.02279      920.45655      1.8585969      40000                100 
     29600   588.0706       28.350542      873.28485      901.63539      1.8450461      40000                100 
     29700   574.88373      30.650466      853.70234      884.3528       1.8373836      40000                100 
     29800   562.95255      32.069492      835.98454      868.05403      1.8239896      40000                100 
     29900   551.45964      33.311341      818.91757      852.22891      1.8099428      40000                100 
     30000   539.37602      34.776627      800.97339      835.75002      1.7966901      40000                100 
     30100   527.98334      35.748299      784.05527      819.80356      1.7801329      40000                100 
     30200   516.86292      35.986645      767.54144      803.52809      1.7568287      40000                100 
     30300   506.94365      35.830166      752.81131      788.64148      1.7325378      40000                100 
     30400   496.93581      35.682969      737.94967      773.63264      1.7082198      40000                100 
     30500   487.52986      36.064165      723.98184      760.046        1.6908997      40000                100 
     30600   477.66231      36.690084      709.32853      746.01862      1.6751431      40000                100 
     30700   469.25841      37.471488      696.84874      734.32023      1.6649109      40000                100 
     30800   458.07858      39.285918      680.24669      719.5326       1.6585533      40000                100 
     30900   447.0355       42.48731       663.84772      706.33503      1.6667704      40000                100 
     31000   434.94521      46.706956      645.89364      692.6006       1.6828261      40000                100 
     31100   424.02459      51.110343      629.67651      680.78685      1.7035542      40000                100 
     31200   412.21906      54.531012      612.1453       666.67631      1.7119053      40000                100 
     31300   401.88655      56.33729       596.80152      653.13881      1.707213       40000                100 
     31400   392.59111      57.174508      582.9978       640.1723       1.6949222      40000                100 
     31500   384.40684      57.588659      570.84415      628.43281      1.6808865      40000                100 
     31600   377.73466      56.966516      560.93597      617.90249      1.6600213      40000                100 
     31700   370.96142      55.518102      550.87771      606.39581      1.6307015      40000                100 
     31800   362.90365      55.800623      538.91192      594.71254      1.6161272      40000                100 
     31900   351.58495      61.610518      522.10364      583.71416      1.6499903      40000                100 
     32000   336.8863       73.142738      500.27615      573.41889      1.7337519      40000                100 
     32100   326.32363      78.795327      484.59058      563.38591      1.7684765      40000                100 
     32200   319.16845      79.167527      473.96515      553.13267      1.7585255      40000                100 
     32300   307.62531      87.355818      456.82359      544.17941      1.8171377      40000                100 
     32400   291.50983      102.01778      432.8921       534.90988      1.9299708      40000                100 
     32500   281.3665       107.54405      417.82926      525.37331      1.9647746      40000                100 
     32600   279.85397      101.66132      415.58314      517.24446      1.904937       40000                100 
     32700   277.46217      96.597891      412.03133      508.62922      1.8507768      40000                100 
     32800   273.22809      95.205425      405.74371      500.94914      1.8292108      40000                100 
     32900   266.05529      99.013444      395.09211      494.10555      1.8530615      40000                100 
     33000   258.2889       104.16858      383.55902      487.7276       1.8890868      40000                100 
     33100   251.4619       107.23448      373.42091      480.6554       1.9063792      40000                100 
     33200   242.48108      113.12725      360.08441      473.21166      1.9468452      40000                100 
     33300   232.79399      120.66327      345.69908      466.36235      2.0018772      40000                100 
     33400   227.90777      122.32065      338.44303      460.76369      2.0088193      40000                100 
     33500   227.34672      116.61905      337.60988      454.22893      1.9516832      40000                100 
     33600   226.85541      111.46461      336.88029      448.3449       1.9004527      40000                100 
     33700   219.41136      116.90156      325.82587      442.72743      1.9395614      40000                100 
     33800   208.70052      126.2176       309.92028      436.13788      2.0100471      40000                100 
     33900   207.23274      123.01041      307.74062      430.75103      1.9769791      40000                100 
     34000   204.59757      121.53751      303.82739      425.3649       1.9585148      40000                100 
     34100   197.98603      124.96464      294.00925      418.97389      1.9798611      40000                100 
     34200   191.45345      128.86557      284.30837      413.17393      2.0062548      40000                100 
     34300   184.12861      133.75658      273.43099      407.18757      2.0404581      40000                100 
     34400   178.02629      137.60906      264.36905      401.9781       2.0668089      40000                100 
     34500   174.6701       137.79823      259.3851       397.18333      2.0626608      40000                100 
     34600   169.22498      141.05024      251.29909      392.34934      2.0839746      40000                100 
     34700   162.50973      146.39224      241.32694      387.71918      2.123003       40000                100 
     34800   157.1026       149.59632      233.29736      382.89368      2.1433103      40000                100 
     34900   156.79184      145.61519      232.83589      378.45108      2.1031679      40000                100 
     35000   157.35177      140.29045      233.66738      373.95783      2.0513585      40000                100 
     35100   155.56462      139.42332      231.01347      370.43679      2.03891        40000                100 
     35200   152.25183      139.78067      226.09397      365.87464      2.0353605      40000                100 
     35300   149.6688       139.04178      222.25817      361.29995      2.0228379      40000                100 
     35400   145.78602      141.47708      216.49223      357.96931      2.0392299      40000                100 
     35500   141.60024      144.93685      210.27636      355.21321      2.065117       40000                100 
     35600   135.96686      149.07567      201.91078      350.98645      2.0939301      40000                100 
     35700   131.86354      151.44272      195.81736      347.26009      2.1080313      40000                100 
     35800   132.36397      147.68243      196.56049      344.24293      2.0708516      40000                100 
     35900   134.39574      139.98668      199.57768      339.56436      1.9970224      40000                100 
     36000   137.23816      131.54042      203.79867      335.33908      1.9173309      40000                100 
     36100   139.07492      125.1483       206.52626      331.67455      1.8560755      40000                100 
     36200   138.00461      123.27511      204.93684      328.21196      1.8337222      40000                100 
     36300   133.9663       125.91387      198.93995      324.85382      1.8500801      40000                100 
     36400   128.1939       131.32173      190.36795      321.68968      1.8902913      40000                100 
     36500   121.89855      136.9041       181.01935      317.92345      1.9306258      40000                100 
     36600   118.12176      138.01745      175.41081      313.42827      1.9312184      40000                100 
     36700   119.24556      132.8297       177.07965      309.90935      1.8792876      40000                100 
     36800   122.71364      124.20501      182.22976      306.43477      1.7977025      40000                100 
     36900   126.56155      115.4114       187.9439       303.35529      1.7150971      40000                100 
     37000   128.94673      108.14397      191.48589      299.62986      1.6443906      40000                100 
     37100   130.53481      103.05369      193.84419      296.89788      1.5940015      40000                100 
     37200   130.37508      99.855199      193.60699      293.46219      1.5587505      40000                100 
     37300   128.26203      98.654549      190.46912      289.12367      1.5391796      40000                100 
     37400   125.38555      98.751771      186.19755      284.94932      1.5309636      40000                100 
     37500   124.35073      97.016641      184.66083      281.67747      1.508778       40000                100 
     37600   124.17007      93.168716      184.39255      277.56126      1.4673031      40000                100 
     37700   124.02691      90.36535       184.17996      274.54531      1.4364704      40000                100 
     37800   122.92239      88.53418       182.53975      271.07393      1.4130935      40000                100 
     37900   122.22176      85.881045      181.49932      267.38036      1.3823911      40000                100 
     38000   122.35565      82.917685      181.69813      264.61582      1.3505415      40000                100 
     38100   122.12818      79.778947      181.36034      261.13929      1.3159492      40000                100 
     38200   121.76126      76.564382      180.81547      257.37985      1.2801792      40000                100 
     38300   121.13372      73.824683      179.88358      253.70826      1.2485332      40000                100 
     38400   120.19015      71.624773      178.48238      250.10715      1.2215255      40000                100 
     38500   119.52208      69.465885      177.49028      246.95617      1.1955939      40000                100 
     38600   118.89616      66.969258      176.5608       243.53006      1.1663563      40000                100 
     38700   118.23713      64.591942      175.58213      240.17408      1.1383289      40000                100 
     38800   116.90123      63.137025      173.59833      236.73536      1.1180883      40000                100 
     38900   115.27497      62.891756      171.18333      234.07509      1.1095103      40000                100 
     39000   112.90239      62.785433      167.66005      230.44548      1.1005411      40000                100 
     39100   112.02589      61.317013      166.35845      227.67546      1.0814237      40000                100 
     39200   111.8184       58.382117      166.05032      224.43244      1.0490093      40000                100 
     39300   112.03088      55.194969      166.36586      221.56083      1.0150078      40000                100 
     39400   111.41847      52.882776      165.45643      218.3392       0.98781271     40000                100 
     39500   110.44404      51.376094      164.00941      215.3855       0.96786932     40000                100 
     39600   109.34379      49.942149      162.37553      212.31768      0.94828678     40000                100 
     39700   108.98828      48.088514      161.8476       209.93612      0.92617935     40000                100 
     39800   108.5036       45.518784      161.12785      206.64663      0.89632478     40000                100 
     39900   108.58004      42.352404      161.24137      203.59377      0.86166148     40000                100 
     40000   108.67814      38.914607      161.38704      200.30165      0.82420295     40000                100 
     40100   108.95261      35.396256      161.79463      197.19088      0.78632735     40000                100 
     40200   108.53451      32.085763      161.17375      193.25951      0.74889554     40000                100 
     40300   109.02771      29.120277      161.90615      191.02643      0.71731111     40000                100 
     40400   108.43696      26.647769      161.02889      187.67666      0.68816858     40000                100 
     40500   107.61455      24.73297       159.8076       184.54057      0.6643248      40000                100 
     40600   106.19947      23.338541      157.70622      181.04476      0.64449201     40000                100 
     40700   104.95628      22.36434       155.86008      178.22442      0.62953056     40000                100 
     40800   103.76758      21.74879       154.09486      175.84365      0.61851013     40000                100 
     40900   101.74753      21.433971      151.09509      172.52906      0.60864767     40000                100 
     41000   99.937918      21.304078      148.40781      169.71189      0.60130369     40000                100 
     41100   98.331643      21.20607       146.02249      167.22856      0.59484927     40000                100 
     41200   96.553502      20.916203      143.38195      164.29815      0.58601665     40000                100 
     41300   94.581263      20.378503      140.45318      160.83168      0.57416489     40000                100 
     41400   93.231008      19.642607      138.44805      158.09065      0.56179186     40000                100 
     41500   91.848664      18.810554      136.39527      155.20582      0.54831411     40000                100 
     41600   90.451989      17.933059      134.3212       152.25426      0.53429529     40000                100 
     41700   89.591873      17.015808      133.04393      150.05974      0.52115556     40000                100 
     41800   88.340148      16.077983      131.18512      147.2631       0.50681483     40000                100 
     41900   87.378718      15.137862      129.7574       144.89526      0.49317187     40000                100 
     42000   86.354501      14.192201      128.23643      142.42863      0.47930864     40000                100 
     42100   85.096608      13.264925      126.36846      139.63339      0.46507775     40000                100 
     42200   84.132284      12.398003      124.93644      137.33444      0.4522371      40000                100 
     42300   83.062495      11.609407      123.3478       134.95721      0.43997659     40000                100 
     42400   82.102785      10.914646      121.92264      132.83728      0.42899001     40000                100 
     42500   80.930148      10.342561      120.18127      130.52383      0.41878097     40000                100 
     42600   79.58784       9.8801502      118.18794      128.06809      0.40933995     40000                100 
     42700   77.975764      9.502128       115.79401      125.29614      0.40015321     40000                100 
     42800   76.709341      9.1758332      113.91337      123.0892       0.39239675     40000                100 
     42900   75.758757      8.88064        112.50175      121.38239      0.38578774     40000                100 
     43000   74.465333      8.6222894      110.58102      119.20331      0.37874679     40000                100 
     43100   73.48452       8.4329876      109.12451      117.5575       0.37321557     40000                100 
     43200   72.067668      8.3191266      107.02049      115.33961      0.36737986     40000                100 
     43300   70.505756      8.1806341      104.70105      112.88168      0.36093741     40000                100 
     43400   69.623824      7.8560032      103.39138      111.24738      0.35427704     40000                100 
     43500   68.48995       7.2816591      101.70758      108.98923      0.34444629     40000                100 
     43600   67.455334      6.525831       100.17117      106.697        0.33301966     40000                100 
     43700   66.667219      5.7322535      99.000821      104.73307      0.32181931     40000                100 
     43800   65.974746      5.0157928      97.972498      102.98829      0.3116701      40000                100 
     43900   65.061671      4.4115174      96.616582      101.0281       0.30215265     40000                100 
     44000   64.178093      3.9148962      95.304468      99.219364      0.29384054     40000                100 
     44100   63.00742       3.5019918      93.566019      97.068011      0.28570146     40000                100 
     44200   62.269663      3.1504692      92.470449      95.620918      0.27931026     40000                100 
     44300   61.434882      2.8387135      91.2308        94.069513      0.27311126     40000                100 
     44400   60.685915      2.5672978      90.118584      92.685882      0.26756918     40000                100 
     44500   59.234666      2.3293072      87.963479      90.292787      0.26066123     40000                100 
     44600   57.811156      2.1150535      85.849566      87.96462       0.25409161     40000                100 
     44700   56.343902      1.9256447      83.670695      85.596339      0.24769282     40000                100 
     44800   55.464343      1.7538301      82.36455       84.11838       0.24294956     40000                100 
     44900   54.871021      1.5917455      81.483466      83.075211      0.23901832     40000                100 
     45000   54.311955      1.4362916      80.653253      82.089545      0.23524275     40000                100 
     45100   53.509584      1.2709468      79.461732      80.732678      0.23077082     40000                100 
     45200   52.793249      1.0872952      78.397974      79.485269      0.22631765     40000                100 
     45300   51.736237      0.89033522     76.828312      77.718648      0.22089831     40000                100 
     45400   50.939185      0.68817812     75.64469       76.332868      0.21608145     40000                100 
     45500   50.193834      0.48769788     74.537843      75.025541      0.21142376     40000                100 
     45600   49.449394      0.29275741     73.43235       73.725107      0.20684211     40000                100 
     45700   48.561586      0.10206255     72.113955      72.216018      0.20196013     40000                100 
     45800   47.705238     -0.081527988    70.842279      70.760751      0.19724464     40000                100 
     45900   47.015395     -0.25665304     69.817862      69.561209      0.19303431     40000                100 
     46000   46.271456     -0.42357381     68.713112      68.289538      0.1887806      40000                100 
     46100   45.65183      -0.57340088     67.792967      67.219566      0.18502189     40000                100 
     46200   44.832697     -0.72173146     66.576555      65.854824      0.18078976     40000                100 
     46300   44.150259     -0.86895723     65.563135      64.694178      0.1769281      40000                100 
     46400   43.422857     -1.0090169      64.482943      63.473926      0.17304535     40000                100 
     46500   42.650075     -1.1424366      63.335362      62.192925      0.16912585     40000                100 
     46600   41.835744     -1.2729212      62.126079      60.853158      0.16515251     40000                100 
     46700   41.098489     -1.3882305      61.031256      59.643026      0.16154579     40000                100 
     46800   40.35522      -1.4970816      59.927501      58.430419      0.15800926     40000                100 
     46900   39.88854      -1.5942719      59.234482      57.64021       0.15529919     40000                100 
     47000   39.061536     -1.6834579      58.00638       56.322922      0.15179949     40000                100 
     47100   38.17567      -1.7646692      56.69087       54.926201      0.14825977     40000                100 
     47200   37.915337     -1.8366823      56.304275      54.467593      0.14637504     40000                100 
     47300   37.391885     -1.9009833      55.526949      53.625965      0.14393984     40000                100 
     47400   36.739486     -1.9583339      54.558136      52.599802      0.14126918     40000                100 
     47500   36.218561     -2.0085785      53.784564      51.775985      0.13901536     40000                100 
     47600   35.286265     -2.0516549      52.400103      50.348448      0.13583188     40000                100 
     47700   34.447769     -2.0928568      51.154936      49.06208       0.13290949     40000                100 
     47800   34.04235      -2.1268989      50.55289       48.425991      0.13114695     40000                100 
     47900   33.614311     -2.155055       49.917252      47.762197      0.12940526     40000                100 
     48000   32.929417     -2.1790679      48.900184      46.721116      0.12706565     40000                100 
     48100   32.317322     -2.1990651      47.991223      45.792158      0.12495428     40000                100 
     48200   31.625164     -2.2160313      46.963368      44.747337      0.12269143     40000                100 
     48300   31.104527     -2.2319199      46.190222      43.958302      0.12087414     40000                100 
     48400   30.519939     -2.2475267      45.32211       43.074583      0.1189104      40000                100 
     48500   29.9492       -2.259652       44.474562      42.21491       0.11701725     40000                100 
     48600   29.775594     -2.2684006      44.216758      41.948357      0.11614652     40000                100 
     48700   29.191792     -2.2748475      43.349811      41.074964      0.11429977     40000                100 
     48800   28.811659     -2.280154       42.785314      40.50516       0.11297521     40000                100 
     48900   28.341415     -2.2848594      42.087001      39.802141      0.11142982     40000                100 
     49000   27.804254     -2.2936052      41.289318      38.995712      0.10968201     40000                100 
     49100   27.359809     -2.3043653      40.629316      38.32495       0.10814697     40000                100 
     49200   26.819343     -2.3158965      39.826724      37.510828      0.10636438     40000                100 
     49300   26.103068     -2.3290684      38.763057      36.433988      0.10413798     40000                100 
     49400   25.614055     -2.3435347      38.036872      35.693337      0.10246028     40000                100 
     49500   25.080674     -2.3563854      37.244801      34.888415      0.10069918     40000                100 
     49600   24.72667      -2.3675115      36.719105      34.351593      0.099409721    40000                100 
     49700   24.115836     -2.3784733      35.812016      33.433543      0.097489376    40000                100 
     49800   23.753161     -2.3884334      35.273444      32.88501       0.09620557     40000                100 
     49900   23.190022     -2.3968095      34.437182      32.040373      0.094439911    40000                100 
     50000   22.854835     -2.4061129      33.939431      31.533318      0.093239153    40000                100 
     50100   22.49685      -2.4137187      33.407822      30.994103      0.092001387    40000                100 
     50200   22.165595     -2.4203002      32.915909      30.495608      0.0908426      40000                100 
     50300   21.709861     -2.426295       32.239144      29.812849      0.089385509    40000                100 
     50400   21.462726     -2.430014       31.872148      29.442134      0.088469711    40000                100 
     50500   21.253495     -2.4334171      31.56144       29.128022      0.087647907    40000                100 
     50600   20.868977     -2.4372846      30.99043       28.553146      0.086392381    40000                100 
     50700   20.516942     -2.439904       30.467659      28.027755      0.085229042    40000                100 
     50800   20.014027     -2.4422526      29.720831      27.278578      0.083690405    40000                100 
     50900   19.544473     -2.4442336      29.023542      26.579309      0.082237905    40000                100 
     51000   19.305301     -2.4436729      28.668372      26.224699      0.081388238    40000                100 
     51100   18.917415     -2.4450759      28.092362      25.647286      0.080153159    40000                100 
     51200   18.527095     -2.4497922      27.512737      25.062944      0.078884885    40000                100 
     51300   18.175883     -2.454222       26.991186      24.536964      0.07771156     40000                100 
     51400   17.832066     -2.4654646      26.480619      24.015154      0.076492494    40000                100 
     51500   17.47608      -2.4793091      25.951979      23.47267       0.075219907    40000                100 
     51600   17.328476     -2.4981662      25.732787      23.234621      0.074414946    40000                100 
     51700   17.249961     -2.5209076      25.616192      23.095285      0.073735289    40000                100 
     51800   16.925592     -2.5445646      25.134503      22.589939      0.072440345    40000                100 
     51900   16.730931     -2.5715118      24.845432      22.27392       0.071442589    40000                100 
     52000   16.376538     -2.598787       24.319158      21.720371      0.070044302    40000                100 
     52100   16.2838       -2.6281902      24.181443      21.553253      0.069283166    40000                100 
     52200   16.028954     -2.6595586      23.802997      21.143438      0.068104554    40000                100 
     52300   15.850765     -2.6932442      23.538386      20.845142      0.067091669    40000                100 
     52400   15.53478      -2.7269361      23.069148      20.342212      0.065739076    40000                100 
     52500   15.351525     -2.7601135      22.797015      20.036901      0.064721152    40000                100 
     52600   15.07155      -2.7929008      22.381252      19.588351      0.063473605    40000                100 
     52700   14.974038     -2.8255024      22.236446      19.410944      0.062679338    40000                100 
     52800   14.759167     -2.857527       21.917363      19.059836      0.061606104    40000                100 
     52900   14.403837     -2.8862688      21.389698      18.503429      0.060223436    40000                100 
     53000   14.14938      -2.9114139      21.011829      18.100415      0.059132622    40000                100 
     53100   13.893755     -2.934433       20.632226      17.697793      0.058070238    40000                100 
     53200   13.581109     -2.9538837      20.167947      17.214063      0.056904405    40000                100 
     53300   13.325641     -2.9706518      19.788577      16.817925      0.055917573    40000                100 
     53400   13.027254     -2.9860161      19.345471      16.359455      0.054844138    40000                100 
     53500   12.78469      -2.9994943      18.985265      15.985771      0.053929071    40000                100 
     53600   12.442192     -3.012151       18.476655      15.464504      0.052779305    40000                100 
     53700   12.172994     -3.0228122      18.076895      15.054083      0.051837559    40000                100 
     53800   12.011471     -3.0318449      17.837035      14.80519       0.051182531    40000                100 
     53900   11.981128     -3.0403192      17.791976      14.751656      0.050866818    40000                100 
     54000   11.795042     -3.0473081      17.515637      14.468329      0.050183713    40000                100 
     54100   11.56107      -3.0534211      17.168189      14.114768      0.049394638    40000                100 
     54200   11.502602     -3.0588761      17.081363      14.022487      0.04904149     40000                100 
     54300   11.224433     -3.0627485      16.668283      13.605534      0.04816735     40000                100 
     54400   11.032027     -3.066971       16.382559      13.315588      0.047509863    40000                100 
     54500   10.86062      -3.0693735      16.128021      13.058648      0.046926716    40000                100 
     54600   10.663237     -3.0709779      15.834907      12.763929      0.046296106    40000                100 
     54700   10.450905     -3.0721172      15.519594      12.447477      0.045634182    40000                100 
     54800   10.221519     -3.0735117      15.178955      12.105443      0.044934306    40000                100 
     54900   9.91657       -3.0746515      14.726106      11.651455      0.044050736    40000                100 
     55000   9.8698974     -3.0756407      14.656798      11.581157      0.043809273    40000                100 
     55100   9.7204216     -3.0750971      14.434826      11.359729      0.043327257    40000                100 
     55200   9.7264976     -3.0742718      14.443849      11.369577      0.043246533    40000                100 
     55300   9.4888641     -3.0724487      14.090963      11.018515      0.042573295    40000                100 
     55400   9.3788967     -3.0708344      13.927662      10.856827      0.042212669    40000                100 
     55500   9.244326      -3.0699142      13.727824      10.65791       0.041785566    40000                100 
     55600   9.0203055     -3.0687971      13.395154      10.326357      0.041139246    40000                100 
     55700   8.8936827     -3.0666156      13.207119      10.140503      0.040743167    40000                100 
     55800   8.8289945     -3.0648403      13.111057      10.046217      0.040498762    40000                100 
     55900   8.7272891     -3.0629506      12.960024      9.8970737      0.040165583    40000                100 
     56000   8.5831701     -3.0604517      12.746008      9.6855558      0.039736783    40000                100 
     56100   8.6056641     -3.057556       12.779411      9.7218551      0.039731508    40000                100 
     56200   8.5379462     -3.0539903      12.67885       9.6248598      0.039510725    40000                100 
     56300   8.5279192     -3.0502884      12.66396       9.6136716      0.039435416    40000                100 
     56400   8.4822261     -3.0470568      12.596106      9.549049       0.03927219     40000                100 
     56500   8.4071015     -3.0429154      12.484546      9.4416303      0.039044721    40000                100 
     56600   8.2756578     -3.0383856      12.289352      9.2509662      0.038684452    40000                100 
     56700   8.1231632     -3.0335972      12.062897      9.0293002      0.038273917    40000                100 
     56800   7.9932759     -3.028475       11.870015      8.8415396      0.037920386    40000                100 
     56900   7.9099621     -3.0242468      11.746294      8.7220469      0.037677718    40000                100 
     57000   7.8607407     -3.0194766      11.6732        8.6537234      0.037529209    40000                100 
     57100   7.7615686     -3.013933       11.525929      8.5119965      0.037263661    40000                100 
     57200   7.6505232     -3.0077738      11.361027      8.3532531      0.036981216    40000                100 
     57300   7.444243      -3.0008075      11.054701      8.0538934      0.036473016    40000                100 
     57400   7.2896872     -2.9941792      10.825186      7.8310064      0.036097442    40000                100 
     57500   7.2804166     -2.9869607      10.811419      7.824458       0.036091854    40000                100 
     57600   7.296562      -2.9779975      10.835395      7.857397       0.03616194     40000                100 
     57700   7.1131383     -2.9681965      10.56301       7.5948138      0.035745312    40000                100 
     57800   6.9834179     -2.9582945      10.370376      7.4120811      0.035464411    40000                100 
     57900   6.8640391     -2.9479172      10.193098      7.2451809      0.035219111    40000                100 
     58000   6.884172      -2.937257       10.222995      7.2857385      0.035323775    40000                100 
     58100   6.7360072     -2.92616        10.002971      7.0768107      0.035015414    40000                100 
     58200   6.7109648     -2.9148361      9.9657828      7.0509467      0.035018711    40000                100 
     58300   6.5648438     -2.9022826      9.748793       6.8465104      0.034729361    40000                100 
     58400   6.4952768     -2.8905187      9.6454861      6.7549674      0.034626349    40000                100 
     58500   6.4559613     -2.8775965      9.5871025      6.709506       0.034608095    40000                100 
     58600   6.2863676     -2.8639151      9.3352559      6.4713408      0.034278952    40000                100 
     58700   6.2701567     -2.8514076      9.3111828      6.4597752      0.034316471    40000                100 
     58800   6.222332      -2.8380031      9.2401631      6.40216        0.034287324    40000                100 
     58900   6.094307      -2.8231929      9.0500459      6.226853       0.034073664    40000                100 
     59000   5.8829308     -2.8081719      8.7361523      5.9279804      0.033659106    40000                100 
     59100   5.8576098     -2.7930504      8.6985506      5.9055001      0.033709294    40000                100 
     59200   5.7210404     -2.7789241      8.495745       5.7168209      0.033477088    40000                100 
     59300   5.6704769     -2.7641367      8.4206582      5.6565215      0.033469931    40000                100 
     59400   5.5145053     -2.7484864      8.1890403      5.4405539      0.033209127    40000                100 
     59500   5.4472411     -2.7338147      8.089153       5.3553383      0.0331586      40000                100 
     59600   5.3429841     -2.7198623      7.9343314      5.2144691      0.033007359    40000                100 
     59700   5.3568389     -2.7061888      7.9549058      5.2487171      0.03314237     40000                100 
     59800   5.2833046     -2.6942481      7.8457073      5.1514592      0.033041348    40000                100 
     59900   5.226609      -2.6828243      7.7615143      5.07869        0.032972965    40000                100 
     60000   5.2396379     -2.6715842      7.7808622      5.1092781      0.033072409    40000                100 
     60100   5.2434616     -2.6600231      7.7865404      5.1265173      0.033152561    40000                100 
     60200   5.1653375     -2.6493368      7.6705261      5.0211894      0.033024974    40000                100 
     60300   5.075835      -2.6386724      7.5376149      4.8989425      0.032866054    40000                100 
     60400   5.0138516     -2.6275403      7.4455697      4.8180294      0.032782601    40000                100 
     60500   4.8952031     -2.6158848      7.2693766      4.6534918      0.032561289    40000                100 
     60600   4.8637863     -2.6058201      7.2227226      4.6169025      0.03253862     40000                100 
     60700   4.8114726     -2.5977314      7.1450369      4.5473055      0.032445465    40000                100 
     60800   4.7747123     -2.5909945      7.0904478      4.4994533      0.032371906    40000                100 
     60900   4.7214211     -2.586823       7.0113103      4.4244873      0.032230943    40000                100 
     61000   4.6574775     -2.5843245      6.916354       4.3320296      0.032044188    40000                100 
     61100   4.6409348     -2.5841864      6.8917882      4.3076017      0.031947967    40000                100 
     61200   4.5546417     -2.5858638      6.7636429      4.1777792      0.031663843    40000                100 
     61300   4.5350142     -2.5883988      6.7344961      4.1460973      0.03153365     40000                100 
     61400   4.4743257     -2.5920364      6.6443737      4.0523373      0.031291802    40000                100 
     61500   4.3766528     -2.597703       6.4993294      3.9016264      0.030936142    40000                100 
     61600   4.3139202     -2.6050333      6.4061714      3.8011382      0.030649319    40000                100 
     61700   4.250851      -2.6131965      6.3125138      3.6993173      0.030351617    40000                100 
     61800   4.3060961     -2.6222066      6.3945526      3.772346       0.03033896     40000                100 
     61900   4.3208245     -2.6322131      6.4164245      3.7842113      0.030215425    40000                100 
     62000   4.2195099     -2.6428786      6.2659722      3.6230935      0.029798326    40000                100 
     62100   4.1854203     -2.653181       6.2153491      3.5621681      0.029548156    40000                100 
     62200   4.0831669     -2.6631593      6.0635028      3.4003435      0.029131909    40000                100 
     62300   4.0968518     -2.6737014      6.083825       3.4101236      0.028995513    40000                100 
     62400   4.0968472     -2.6853295      6.0838182      3.3984886      0.028818155    40000                100 
     62500   4.0897413     -2.6970577      6.0732659      3.3762082      0.028620028    40000                100 
     62600   4.1173454     -2.7093314      6.114258       3.4049266      0.028505267    40000                100 
     62700   4.1553244     -2.7198403      6.1706567      3.4508164      0.028437293    40000                100 
     62800   4.1461574     -2.7301741      6.1570438      3.4268697      0.028258       40000                100 
     62900   4.0834393     -2.7397683      6.0639073      3.324139       0.027951754    40000                100 
     63000   4.0009442     -2.7480414      5.9414022      3.1933608      0.027614312    40000                100 
     63100   3.9359455     -2.7555692      5.844879       3.0893098      0.027329218    40000                100 
     63200   3.904159      -2.7628152      5.797676       3.0348609      0.027132155    40000                100 
     63300   3.7992108     -2.7691625      5.6418281      2.8726656      0.026766362    40000                100 
     63400   3.8322838     -2.7749911      5.6909415      2.9159504      0.02674702     40000                100 
     63500   3.8007732     -2.7789854      5.6441482      2.8651628      0.026589619    40000                100 
     63600   3.8328594     -2.782602       5.6917962      2.9091942      0.026596918    40000                100 
     63700   3.7591495     -2.7847326      5.582337       2.7976045      0.026358998    40000                100 
     63800   3.6802241     -2.7873952      5.4651328      2.6777375      0.026105668    40000                100 
     63900   3.606756      -2.7902541      5.3560327      2.5657786      0.025859658    40000                100 
     64000   3.5529784     -2.7929477      5.276173       2.4832253      0.025662642    40000                100 
     64100   3.534111      -2.7948343      5.2481548      2.4533205      0.025557343    40000                100 
     64200   3.5357127     -2.7977092      5.2505333      2.4528241      0.02549723     40000                100 
     64300   3.4542319     -2.8002773      5.1295344      2.3292571      0.025235505    40000                100 
[...]
     83600   1.3781948     -2.7322369      2.0466193     -0.68561761     0.018991495    40000                100 
     83700   1.359641      -2.7318158      2.0190669     -0.71274881     0.018949608    40000                100 
     83800   1.3787965     -2.7313248      2.0475129     -0.6838119      0.019002731    40000                100 
     83900   1.35703       -2.7301739      2.0151895     -0.71498431     0.018958925    40000                100 
     84000   1.3591812     -2.7295199      2.0183842     -0.71113573     0.018971976    40000                100 
     84100   1.3822195     -2.7295531      2.0525959     -0.67695715     0.01903152     40000                100 
     84200   1.3418311     -2.7297209      1.9926191     -0.73710182     0.018930862    40000                100 
     84300   1.3332523     -2.729712       1.9798796     -0.74983242     0.018909224    40000                100 
     84400   1.3201102     -2.7291607      1.9603637     -0.76879699     0.018879096    40000                100 
     84500   1.3089083     -2.7288528      1.9437289     -0.78512393     0.018852642    40000                100 
     84600   1.3100679     -2.7286142      1.9454509     -0.78316327     0.018855585    40000                100 
     84700   1.3133734     -2.7281978      1.9503595     -0.7778383      0.018866405    40000                100 
     84800   1.2880225     -2.7269334      1.9127134     -0.81421992     0.018814432    40000                100 
     84900   1.2898537     -2.7259501      1.9154327     -0.81051746     0.018831143    40000                100 
     85000   1.2879438     -2.7249526      1.9125966     -0.81235601     0.018837427    40000                100 
     85100   1.2688299     -2.7245994      1.8842124     -0.84038708     0.018797649    40000                100 
     85200   1.2627288     -2.723631       1.8751523     -0.84847871     0.018793296    40000                100 
     85300   1.251323      -2.7227606      1.8582147     -0.86454593     0.018776839    40000                100 
     85400   1.2198047     -2.7219818      1.8114099     -0.91057188     0.018710853    40000                100 
     85500   1.204518      -2.7208214      1.7887092     -0.93211217     0.018688078    40000                100 
     85600   1.210115      -2.7200125      1.7970208     -0.92299177     0.018715638    40000                100 
     85700   1.2264545     -2.7190353      1.821285      -0.8977503      0.018772486    40000                100 
     85800   1.2406211     -2.7183183      1.8423223     -0.87599598     0.01882099     40000                100 
     85900   1.236638      -2.7174577      1.8364075     -0.88105024     0.018824366    40000                100 
     86000   1.2157819     -2.7165917      1.8054361     -0.91115565     0.018783159    40000                100 
     86100   1.2179198     -2.7162634      1.8086109     -0.90765251     0.018794849    40000                100 
     86200   1.2151649     -2.7160518      1.8045198     -0.91153194     0.018794242    40000                100 
     86300   1.2015842     -2.7162596      1.7843525     -0.93190714     0.018763606    40000                100 
     86400   1.1911811     -2.7162387      1.7689039     -0.94733474     0.018739607    40000                100 
     86500   1.2124519     -2.7170828      1.800491      -0.91659173     0.018787038    40000                100 
     86600   1.214302      -2.7179316      1.8032384     -0.91469323     0.018785579    40000                100 
     86700   1.1933546     -2.7190045      1.7721316     -0.94687297     0.01872665     40000                100 
     86800   1.157152      -2.7197647      1.7183708     -1.001394       0.018631456    40000                100 
     86900   1.1556831     -2.7215638      1.7161894     -1.0053744      0.018612894    40000                100 
     87000   1.167545      -2.7231926      1.7338043     -0.98938832     0.018627779    40000                100 
     87100   1.1483766     -2.7249341      1.7053393     -1.0195948      0.018561413    40000                100 
     87200   1.1319559     -2.7272402      1.6809545     -1.0462857      0.018496742    40000                100 
     87300   1.1327241     -2.7297957      1.6820953     -1.0477003      0.018472868    40000                100 
     87400   1.096677      -2.7323854      1.6285654     -1.1038201      0.018356321    40000                100 
     87500   1.067389      -2.7351743      1.5850727     -1.1501017      0.018253304    40000                100 
     87600   1.0535145     -2.7381782      1.564469      -1.1737092      0.018187081    40000                100 
     87700   1.0634501     -2.7417455      1.5792233     -1.1625222      0.018174852    40000                100 
     87800   1.0727611     -2.7451918      1.5930502     -1.1521416      0.018163927    40000                100 
     87900   1.0674824     -2.7476649      1.5852113     -1.1624536      0.018125323    40000                100 
     88000   1.0577936     -2.7501546      1.5708236     -1.1793311      0.018077122    40000                100 
     88100   1.047871      -2.7526924      1.5560884     -1.196604       0.018026917    40000                100 
     88200   1.0501488     -2.7552314      1.559471      -1.1957604      0.018005641    40000                100 
     88300   1.0498502     -2.7580635      1.5590275     -1.199036       0.017975808    40000                100 
     88400   1.0455885     -2.7608658      1.5526989     -1.2081669      0.017937743    40000                100 
     88500   1.0485567     -2.7634693      1.5571068     -1.2063625      0.017920364    40000                100 
     88600   1.0610635     -2.7658401      1.5756793     -1.1901608      0.017929063    40000                100 
     88700   1.0581635     -2.7680691      1.5713727     -1.1966964      0.017902552    40000                100 
     88800   1.0410176     -2.770687       1.5459111     -1.2247759      0.017839638    40000                100 
     88900   1.0252698     -2.7729419      1.5225257     -1.2504162      0.017782337    40000                100 
     89000   0.99902624    -2.7752295      1.483554      -1.2916755      0.017699502    40000                100 
     89100   1.012681      -2.7773063      1.5038313     -1.273475       0.017718251    40000                100 
     89200   1.0027995     -2.7792978      1.4891572     -1.2901406      0.017678065    40000                100 
     89300   1.013774      -2.7808658      1.5054544     -1.2754114      0.01769211     40000                100 
     89400   0.99125634    -2.7823902      1.4720157     -1.3103746      0.017625124    40000                100 
     89500   0.98312804    -2.7850915      1.4599451     -1.3251464      0.017587712    40000                100 
     89600   0.95423793    -2.7869154      1.4170433     -1.369872       0.017501487    40000                100 
     89700   0.93953026    -2.7887104      1.3952024     -1.3935079      0.017450558    40000                100 
     89800   0.9384201     -2.7904116      1.3935538     -1.3968577      0.017433944    40000                100 
     89900   0.94946516    -2.7921593      1.4099558     -1.3822035      0.017448028    40000                100 
     90000   0.94865611    -2.7932256      1.4087543     -1.3844712      0.017437967    40000                100 
     90100   0.94885532    -2.7946075      1.4090501     -1.3855574      0.017429004    40000                100 
     90200   0.94165214    -2.7955951      1.3983534     -1.3972417      0.017403548    40000                100 
     90300   0.9395031     -2.7967684      1.3951621     -1.4016063      0.01739211     40000                100 
     90400   0.92658433    -2.7978123      1.3759777     -1.4218346      0.017356177    40000                100 
     90500   0.9057381     -2.7989063      1.3450211     -1.4538852      0.017299532    40000                100 
     90600   0.90833506    -2.7996397      1.3488776     -1.4507622      0.017304636    40000                100 
     90700   0.91714324    -2.8003801      1.3619577     -1.4384224      0.017326951    40000                100 
     90800   0.91599153    -2.800881       1.3602474     -1.4406335      0.017327038    40000                100 
     90900   0.90066661    -2.8008258      1.3374899     -1.4633359      0.017295575    40000                100 
     91000   0.91592286    -2.8011581      1.3601454     -1.4410127      0.017339256    40000                100 
     91100   0.89811992    -2.8010777      1.3337081     -1.4673696      0.017304637    40000                100 
     91200   0.88110588    -2.800759       1.3084422     -1.4923167      0.017274865    40000                100 
     91300   0.87833729    -2.8008044      1.3043309     -1.4964735      0.017280246    40000                100 
     91400   0.88363463    -2.800677       1.3121974     -1.4884796      0.017306931    40000                100 
     91500   0.87495867    -2.8001167      1.2993136     -1.5008031      0.017302542    40000                100 
     91600   0.87519837    -2.7994611      1.2996696     -1.4997916      0.017323215    40000                100 
     91700   0.85902301    -2.7982864      1.2756492     -1.5226372      0.017307786    40000                100 
     91800   0.84749923    -2.7970483      1.2585364     -1.5385119      0.017306544    40000                100 
     91900   0.83691586    -2.7955986      1.2428201     -1.5527786      0.017311133    40000                100 
     92000   0.83964124    -2.7936997      1.2468672     -1.5468325      0.017352252    40000                100 
     92100   0.84147363    -2.7914521      1.2495883     -1.5418637      0.017395296    40000                100 
     92200   0.82477943    -2.7896063      1.2247975     -1.5648088      0.017390064    40000                100 
     92300   0.80971294    -2.7875892      1.2024237     -1.5851655      0.017390306    40000                100 
     92400   0.81018327    -2.7855359      1.2031222     -1.5824137      0.017429593    40000                100 
     92500   0.80783717    -2.7834051      1.1996382     -1.583767       0.017463712    40000                100 
     92600   0.79309794    -2.7813354      1.1777504     -1.603585       0.017466204    40000                100 
     92700   0.77930874    -2.7790498      1.1572735     -1.6217763      0.017473213    40000                100 
     92800   0.78611533    -2.777229       1.1673813     -1.6098478      0.017530863    40000                100 
     92900   0.76855387    -2.7748861      1.1413025     -1.6335836      0.017532263    40000                100 
     93000   0.74475898    -2.7722035      1.1059671     -1.6662364      0.017520514    40000                100 
     93100   0.73974046    -2.7696945      1.0985146     -1.6711799      0.017553825    40000                100 
     93200   0.73668519    -2.7672732      1.0939775     -1.6732957      0.017590241    40000                100 
     93300   0.73166114    -2.7648531      1.0865168     -1.6783363      0.01762036     40000                100 
     93400   0.71703461    -2.7626055      1.0647964     -1.6978091      0.017625907    40000                100 
     93500   0.71602245    -2.7605921      1.0632933     -1.6972988      0.017661676    40000                100 
     93600   0.71022359    -2.7587942      1.054682      -1.7041122      0.017681754    40000                100 
     93700   0.7233599     -2.7573406      1.0741895     -1.6831512      0.017745446    40000                100 
     93800   0.71447927    -2.7557443      1.0610017     -1.6947426      0.017754218    40000                100 
     93900   0.71619022    -2.754564       1.0635425     -1.6910216      0.017786994    40000                100 
     94000   0.70931199    -2.7535992      1.0533283     -1.7002709      0.017797249    40000                100 
     94100   0.70790282    -2.7525831      1.0512357     -1.7013474      0.017821871    40000                100 
     94200   0.69437658    -2.7517008      1.0311492     -1.7205515      0.0178131      40000                100 
     94300   0.68678594    -2.7510691      1.0198771     -1.731192       0.017815644    40000                100 
     94400   0.67404129    -2.7505149      1.0009513     -1.7495635      0.017802152    40000                100 
     94500   0.66701992    -2.750067       0.99052458    -1.7595424      0.017800699    40000                100 
     94600   0.67203685    -2.74981        0.99797472    -1.7518353      0.017825943    40000                100 
     94700   0.6706855     -2.7491069      0.99596797    -1.753139       0.017834826    40000                100 
     94800   0.65921821    -2.7489549      0.97893904    -1.7700159      0.017814801    40000                100 
     94900   0.64461388    -2.7484103      0.95725161    -1.7911587      0.017787587    40000                100 
     95000   0.64456561    -2.7480187      0.95717994    -1.7908388      0.017794547    40000                100 
     95100   0.63608734    -2.7478039      0.94458969    -1.8032142      0.017781016    40000                100 
     95200   0.63062422    -2.7480164      0.93647697    -1.8115394      0.017771173    40000                100 
     95300   0.61896433    -2.7487379      0.91916204    -1.8295759      0.017739691    40000                100 
     95400   0.61579341    -2.7494097      0.91445321    -1.8349565      0.017728596    40000                100 
     95500   0.59998147    -2.7504483      0.89097248    -1.8594758      0.017682555    40000                100 
     95600   0.59180901    -2.7514867      0.87883638    -1.8726504      0.017652697    40000                100 
     95700   0.57996599    -2.7528677      0.8612495     -1.8916182      0.017611833    40000                100 
     95800   0.57368172    -2.753944       0.85191736    -1.9020267      0.017585411    40000                100 
     95900   0.57394051    -2.7550547      0.85230166    -1.9027531      0.017576128    40000                100 
     96000   0.57258607    -2.7560655      0.85029032    -1.9057751      0.017564738    40000                100 
     96100   0.57608042    -2.7572154      0.85547942    -1.901736       0.017563276    40000                100 
     96200   0.57006816    -2.7584413      0.84655122    -1.9118901      0.017538543    40000                100 
     96300   0.56668758    -2.759477       0.84153105    -1.9179459      0.017521644    40000                100 
     96400   0.56449875    -2.7607227      0.83828065    -1.9224421      0.017505846    40000                100 
     96500   0.57069977    -2.7620647      0.84748915    -1.9145755      0.017508968    40000                100 
     96600   0.57245506    -2.7632817      0.85009577    -1.913186       0.01750076     40000                100 
     96700   0.56939236    -2.7646492      0.84554765    -1.9191016      0.017478377    40000                100 
     96800   0.56837494    -2.7658441      0.84403679    -1.9218073      0.017461163    40000                100 
     96900   0.56250101    -2.7675055      0.835314      -1.9321915      0.017430112    40000                100 
     97000   0.56303051    -2.7688479      0.8361003     -1.9327476      0.017416032    40000                100 
     97100   0.54862913    -2.7700002      0.81471425    -1.9552859      0.017365303    40000                100 
     97200   0.54023149    -2.771486       0.80224376    -1.9692423      0.017326593    40000                100 
     97300   0.52682348    -2.7723964      0.78233287    -1.9900635      0.017278561    40000                100 
     97400   0.51932568    -2.773214       0.77119863    -2.0020154      0.017246389    40000                100 
     97500   0.51981745    -2.7741575      0.77192891    -2.0022286      0.017233573    40000                100 
     97600   0.52127743    -2.7748546      0.77409699    -2.0007576      0.017224845    40000                100 
     97700   0.50763626    -2.7756297      0.75383985    -2.0217899      0.017178502    40000                100 
     97800   0.50224598    -2.7762703      0.74583529    -2.030435       0.017152603    40000                100 
     97900   0.49789831    -2.776933       0.73937898    -2.037554       0.017130582    40000                100 
     98000   0.48855508    -2.7781145      0.7255043     -2.0526102      0.017094559    40000                100 
     98100   0.49269296    -2.7786872      0.73164904    -2.0470382      0.01709492     40000                100 
     98200   0.48500326    -2.7791461      0.72022984    -2.0589162      0.017066131    40000                100 
     98300   0.47887779    -2.7795814      0.71113352    -2.0684479      0.017041303    40000                100 
     98400   0.46864003    -2.7802137      0.69593045    -2.0842832      0.017004925    40000                100 
     98500   0.46288098    -2.7812643      0.68737825    -2.0938861      0.01697591     40000                100 
     98600   0.45618078    -2.7820201      0.67742846    -2.1045916      0.016945079    40000                100 
     98700   0.44403343    -2.7827982      0.65938964    -2.1234086      0.016900171    40000                100 
     98800   0.4445953     -2.783418       0.66022402    -2.123194       0.016887723    40000                100 
     98900   0.43467185    -2.7840106      0.6454877     -2.1385229      0.016849422    40000                100 
     99000   0.41685404    -2.7847811      0.61902825    -2.1657528      0.016790489    40000                100 
     99100   0.41479067    -2.7855839      0.61596414    -2.1696198      0.01676995     40000                100 
     99200   0.41149685    -2.786478       0.61107282    -2.1754052      0.016744686    40000                100 
     99300   0.40539883    -2.78748        0.60201726    -2.1854627      0.01671127     40000                100 
     99400   0.40310619    -2.7886559      0.5986127     -2.1900432      0.0166862      40000                100 
     99500   0.40270967    -2.7895506      0.59802386    -2.1915267      0.016666638    40000                100 
     99600   0.40031855    -2.790333       0.59447305    -2.1958599      0.016642277    40000                100 
     99700   0.39222379    -2.7916543      0.58245233    -2.209202       0.016600641    40000                100 
     99800   0.38823254    -2.7929145      0.57652532    -2.2163892      0.016568466    40000                100 
     99900   0.38116997    -2.7940656      0.56603741    -2.2280282      0.016528294    40000                100 
    100000   0.37744804    -2.7954976      0.56051034    -2.2349872      0.016495357    40000                100 
Loop time of 4.67613 on 4 procs for 100000 steps with 100 atoms

Performance: 18476.807 tau/day, 21385.193 timesteps/s, 2.139 Matom-step/s
99.3% CPU use with 1 MPI tasks x 4 OpenMP threads

MPI task timing breakdown:
Section |  min time  |  avg time  |  max time  |%varavg| %total
---------------------------------------------------------------
Pair    | 2.5643     | 2.5643     | 2.5643     |   0.0 | 54.84
Neigh   | 0.12228    | 0.12228    | 0.12228    |   0.0 |  2.62
Comm    | 0.92812    | 0.92812    | 0.92812    |   0.0 | 19.85
Output  | 0.39318    | 0.39318    | 0.39318    |   0.0 |  8.41
Modify  | 0.55543    | 0.55543    | 0.55543    |   0.0 | 11.88
Other   |            | 0.1128     |            |       |  2.41

Nlocal:            100 ave         100 max         100 min
Histogram: 1 0 0 0 0 0 0 0 0 0
Nghost:            563 ave         563 max         563 min
Histogram: 1 0 0 0 0 0 0 0 0 0
Neighs:           2366 ave        2366 max        2366 min
Histogram: 1 0 0 0 0 0 0 0 0 0

Total # of neighbors = 2366
Ave neighs/atom = 23.66
Neighbor list builds = 887
Dangerous builds = 0
Total wall time: 0:00:04
