ITEM: TIMESTEP
0
ITEM: NUMBER OF ATOMS
100
ITEM: BOX BOUNDS ff ff pp
0.0000000000000000e+00 2.0000000000000000e+02
0.0000000000000000e+00 2.0000000000000000e+02
-5.0000000000000000e-01 5.0000000000000000e-01
ITEM: ATOMS id type x y vx vy fx fy v_dist
24 1 9.30586 3.51568 906.941 964.843 91.0522 -1037.09 132.418
49 1 185.03 5.17366 -850.304 948.263 687.048 -504.287 127.366
64 1 56.12 8.36987 438.8 916.301 -1469.28 -552.731 101.595
81 1 13.0546 9.18486 869.454 908.151 -1361.91 -1638.38 125.725
87 1 23.5027 9.8796 764.973 901.204 794.33 -25.7449 118.21
60 1 139.145 10.8285 -391.45 891.715 1421.91 572.531 97.3853
100 1 131.862 11.9731 -318.624 880.269 717.492 816.091 93.616
59 1 147.023 12.1688 -470.228 878.312 1029.03 806.058 99.6266
75 1 127.983 12.8637 -279.832 871.363 262.515 -1100.45 91.5193
15 1 114.965 15.2643 -149.649 847.357 1727.22 -2208.96 86.0471
84 1 38.2826 16.4544 617.174 835.456 -2013.95 238.019 103.87
30 1 83.4901 18.9103 165.099 810.897 408.548 20.2228 82.7534
12 1 92.3317 19.3746 76.6827 806.254 835.878 758.196 80.9893
13 1 110.788 19.5175 -107.883 804.825 476.598 -1905.87 81.2024
45 1 31.869 22.1128 681.31 778.872 -618.07 -1715.18 103.481
48 1 55.9423 22.0622 440.577 779.378 -1619.29 -2160.19 89.5287
44 1 16.685 25.0764 833.15 749.236 -1228.66 -145.055 112.049
41 1 0.525224 27.4448 994.748 725.552 -1795.87 665.854 123.124
97 1 174.536 31.8613 -745.363 681.387 1964.14 674.778 100.988
10 1 113.372 34.803 -133.715 651.97 1108.29 -1715.53 66.5541
98 1 134.113 35.0704 -341.129 649.296 -462.292 -2304.97 73.3453
17 1 178.713 35.0259 -787.133 649.741 1837.32 -426.198 102.066
5 1 48.5295 35.5566 514.705 644.434 -1904.75 -1102.51 82.4752
58 1 113.384 40.7601 -133.838 592.399 633.854 -1117.58 60.7329
74 1 79.9334 40.9954 200.666 590.046 120.092 -620.472 62.3234
86 1 117.358 42.0353 -173.584 579.647 1635.64 -888.846 60.508
35 1 177.262 43.8018 -772.621 561.982 1133.19 -456.029 95.5388
14 1 86.4667 45.817 135.333 541.83 316.104 -1701.12 55.8475
69 1 19.0188 49.4601 809.812 505.399 -494.706 -255.845 95.458
22 1 72.7708 59.4353 272.292 405.647 -1334.89 -1437.62 48.8562
20 1 42.2242 61.5032 577.758 384.968 -1820.97 -892.29 69.4266
36 1 93.8574 60.6092 61.4264 393.908 1209.72 109.131 39.8669
99 1 194.72 61.728 -947.202 382.72 1004.57 -147.271 102.16
89 1 82.0648 62.5865 179.352 374.135 -1159.93 658.893 41.4903
46 1 144.86 62.8848 -448.601 371.152 -781.939 1138.97 58.2234
8 1 119.728 65.0768 -197.278 349.232 -1388.37 -982.724 40.1101
28 1 134.555 67.5213 -345.551 324.787 -705.43 -814.642 47.4228
1 1 182.13 66.96 -821.305 330.4 2081.1 -487.043 88.5272
11 1 188.485 67.0271 -884.85 329.729 866.058 -2039.61 94.4288
70 1 169.053 69.1599 -690.527 308.401 299.201 -1989.97 75.6267
72 1 159.855 78.2595 -598.547 217.405 -444.258 83.6426 63.6807
16 1 116.742 79.506 -167.418 204.94 774.889 -1225.49 26.463
67 1 33.6694 82.4142 663.306 175.858 -2277.24 -234.856 68.6222
23 1 27.4225 89.7688 725.775 102.312 -1428.27 -110.186 73.2951
77 1 82.221 88.7576 177.79 112.424 -412.95 585.825 21.0353
25 1 127.345 91.101 -273.452 88.9899 1635.37 888.964 28.7568
93 1 67.8585 97.2424 321.415 27.576 -1149.07 690.62 32.2596
62 1 0.660416 99.612 993.396 3.87977 -1551.12 605.942 99.3403
7 1 120.908 99.7606 -209.079 2.39447 -241.996 -1131.87 20.9093
39 1 134.843 100.098 -348.426 -0.977225 1226.54 1298.74 34.8428
9 1 25.2339 106.278 747.661 -62.7783 -531.722 1165.24 75.0292
80 1 42.8813 105.69 571.187 -56.9047 -579.89 209.758 57.4015
6 1 61.445 106.119 385.55 -61.1899 -462.96 829.912 39.0375
82 1 103.725 107.242 -37.2507 -72.4203 -1104.04 -176.326 8.1439
21 1 158.155 108.601 -581.549 -86.0098 1173.51 -1449.3 58.7874
51 1 104.094 114.11 -40.9437 -141.101 -1085.85 1095.62 14.6921
83 1 93.9559 117.63 60.4405 -176.3 -1096.38 2007.7 18.6373
73 1 191.582 120.683 -915.821 -206.833 1871.87 1165.09 93.8887
43 1 187.227 121.301 -872.268 -213.013 496.964 1455.37 89.7901
38 1 104.393 124.816 -43.925 -248.162 1644.26 1379.57 25.202
55 1 82.8539 126.235 171.461 -262.35 -1295.88 -138.371 31.3411
37 1 163.773 126.303 -637.726 -263.032 2333.54 -42.8886 68.9841
52 1 113.556 128.135 -135.556 -281.347 1745.18 -1442.47 31.23
50 1 175.113 129.118 -751.133 -291.179 -697.916 1743.07 80.5597
65 1 107.82 136.012 -78.2031 -360.117 333.523 -498.774 36.851
4 1 21.178 139.009 788.22 -390.085 -110.596 984.605 87.9464
76 1 47.0482 139.109 529.518 -391.09 442.058 -335.861 65.8286
26 1 15.728 139.74 842.72 -397.4 -1114.33 -249.132 93.1721
33 1 68.4322 139.777 315.678 -397.77 203.569 -1204.14 50.7813
66 1 31.8405 143.327 681.595 -433.268 739.551 2135.24 80.7647
19 1 102.168 142.699 -21.683 -426.988 -1361.85 -977.395 42.7538
85 1 156.408 142.686 -564.076 -426.861 139.481 1211.12 70.7384
91 1 7.11279 144.627 928.872 -446.27 -2512.12 1761.46 103.051
40 1 91.3753 143.903 86.2475 -439.025 645.716 -996.025 44.7417
42 1 52.3202 145.488 476.798 -454.879 -1251.95 1995.55 65.8977
53 1 62.9349 146.689 370.651 -466.892 -650.803 -421.201 59.6129
27 1 156.658 147.414 -566.578 -474.139 1260.59 54.9716 73.8795
88 1 138.439 151.996 -384.395 -519.96 -113.026 381.214 64.662
32 1 90.0671 157.562 99.3291 -575.62 -600.568 -282.46 58.4127
31 1 55.1412 158.137 448.588 -581.368 -466.732 2225.81 73.4316
54 1 172.14 159.301 -721.401 -593.013 153.85 108.355 93.3855
79 1 81.7138 163.185 182.862 -631.852 -1648.45 -859.171 65.7781
61 1 143.831 163.672 -438.308 -636.723 890.44 1036.2 77.3
78 1 91.198 165.21 88.0197 -652.099 193.469 1573.21 65.8012
63 1 100.67 169.088 -6.705 -690.881 619.98 2106.64 69.0914
68 1 18.6455 175.251 813.545 -752.508 -1280.13 -631.378 110.821
47 1 65.8283 176.692 341.717 -766.923 -1255.93 1395.42 83.9608
18 1 127.112 177.354 -271.124 -773.544 136.3 450.624 81.9682
92 1 80.8579 178.747 191.421 -787.474 -1401 1653.58 81.0405
56 1 106.561 177.848 -65.6142 -778.482 969.148 2108.59 78.1242
57 1 139.191 178.368 -391.907 -783.683 -372.844 -442.873 87.6214
3 1 184.624 177.49 -846.241 -774.898 1061.09 1422.27 114.743
34 1 5.11572 179.945 948.843 -799.448 -495.052 1049.57 124.073
94 1 27.547 182.628 724.53 -826.276 175.369 -180.758 109.894
95 1 135.24 185.673 -352.404 -856.735 1838.25 519.086 92.6382
90 1 151.793 187.112 -517.931 -871.124 -82.8211 1721.47 101.346
2 1 189.884 186.173 -898.843 -861.73 1878.74 565.096 124.519
96 1 112.012 187.776 -120.121 -877.762 1600.2 268.262 88.5944
71 1 6.12781 190.09 938.722 -900.904 -826.468 -650.116 130.109
29 1 152.9 195.803 -529.003 -958.033 1362.74 1716.11 109.438
ITEM: TIMESTEP
100
ITEM: NUMBER OF ATOMS
100
ITEM: BOX BOUNDS ff ff pp
0.0000000000000000e+00 2.0000000000000000e+02
0.0000000000000000e+00 2.0000000000000000e+02
-5.0000000000000000e-01 5.0000000000000000e-01
ITEM: ATOMS id type x y vx vy fx fy v_dist
24 1 10.2123 4.47995 906.155 963.719 127.416 232.36 131.095
49 1 184.18 6.12149 -849.444 947.41 572.124 -523.681 126.093
64 1 56.5586 9.28574 438.322 915.377 -1100.85 -2035.9 100.58
81 1 13.9236 10.0925 868.564 907.217 -1132.89 528.414 124.469
87 1 24.2673 10.7803 764.324 900.233 -336.313 -1571.76 117.028
60 1 138.754 11.7197 -390.995 890.894 949.826 757.697 96.4119
100 1 131.544 12.8528 -318.324 879.242 1337.47 -377.379 92.6804
59 1 146.553 13.0467 -469.645 877.36 1858.07 810.847 98.6308
75 1 127.703 13.7347 -279.614 870.549 1216.01 253.418 90.6045
15 1 114.815 16.1111 -149.502 846.397 1224.15 -1062.17 85.1871
84 1 38.8995 17.2895 616.468 834.736 271.779 -2482.1 102.831
30 1 83.6551 19.7208 164.93 810.072 732.153 88.1331 81.9262
12 1 92.4084 20.1804 76.6368 805.358 -1678.01 -216.147 80.1798
13 1 110.68 20.3219 -107.905 804.147 1797.35 -1366.78 80.3907
45 1 32.55 22.8913 680.828 778.062 -1197.57 -897.479 102.446
48 1 56.3827 22.8412 440.157 778.658 -284.694 -1421.3 88.6338
44 1 17.5177 25.8252 832.273 748.541 -2232.36 -1930.94 110.929
41 1 1.51949 28.1701 993.745 724.927 522.612 -911.672 121.893
97 1 173.791 32.5424 -744.682 680.758 1740.32 -2158.24 99.9784
10 1 113.238 35.4546 -133.584 651.414 -972.269 -2282.04 65.8889
98 1 133.772 35.7195 -340.961 648.632 958.143 -1872.25 72.6121
17 1 177.926 35.6754 -786.467 649.054 2109.62 331.156 101.046
5 1 49.0439 36.2007 514.141 643.755 346.659 -2018.06 81.651
58 1 113.25 41.3523 -133.662 591.948 979.154 -1817.34 60.1258
74 1 80.134 41.5852 200.502 589.453 -1240.73 898.405 61.7005
86 1 117.185 42.6145 -173.414 578.899 927.387 182.294 59.9033
35 1 176.49 44.3635 -771.95 561.44 1226.2 -953.682 94.5839
14 1 86.6019 46.3585 135.201 541.151 -1168.69 -271.213 55.2894
69 1 19.8282 49.9652 808.988 504.959 -1488.41 -1870.17 94.5039
22 1 73.043 59.8407 271.893 405.103 -773.886 -1762.1 48.3679
20 1 42.8017 61.8881 577.3 384.728 -1045.61 -1503.58 68.7325
36 1 93.9187 61.0029 61.2495 393.372 -1575.15 -648.964 39.4685
99 1 193.774 62.1105 -946.088 382.353 -510.415 -902.542 101.139
89 1 82.2441 62.9604 179.225 373.678 450.645 -2036.08 41.0756
46 1 144.412 63.2556 -448.161 370.606 -881.277 -1290.53 57.6415
8 1 119.531 65.4257 -197.042 348.729 816.452 1155.32 39.7093
28 1 134.21 67.8461 -345.396 324.744 453.518 412.475 46.9486
1 1 181.31 67.2903 -820.262 330.159 -674.631 -494.521 87.6424
11 1 187.601 67.3567 -883.895 329.368 441.776 580.998 93.4851
70 1 168.363 69.4681 -689.667 308.073 1056.09 420.899 74.8709
72 1 159.256 78.4768 -597.978 217.122 2030.16 1328.2 63.0442
16 1 116.574 79.7107 -167.166 204.513 -794.208 -1149.44 26.1986
67 1 34.3325 82.5899 662.696 175.637 -939.241 -689.102 67.9363
23 1 28.1478 89.8711 724.937 102.277 -400.799 934.282 72.5626
77 1 82.3986 88.87 177.467 112.396 -1130.42 732.123 20.8251
25 1 127.072 91.1899 -272.763 88.8146 1929.02 1141.8 28.4695
93 1 68.1797 97.2699 321.01 27.4737 1118.24 1400.8 31.9372
62 1 1.6534 99.6159 992.508 3.96022 -2252.51 677.523 98.3473
7 1 120.699 99.7628 -208.689 2.23473 -674.59 1299.64 20.7003
39 1 134.494 100.097 -348.058 -0.894142 324.748 960.891 34.4946
9 1 25.9812 106.215 746.926 -62.4957 -427.714 -1502.66 74.2793
80 1 43.4522 105.634 570.669 -56.8898 -312.161 312.908 56.8277
6 1 61.8303 106.058 385.105 -60.9781 -1171.14 -1322.49 38.6474
82 1 103.688 107.17 -36.9904 -72.2049 133.694 516.561 8.06263
21 1 157.574 108.515 -580.928 -86.0037 -5.46413 -277.627 58.1999
51 1 104.053 113.969 -40.9828 -140.733 267.279 1258.77 14.5453
83 1 94.0163 117.454 60.3236 -175.955 -761.411 357.58 18.4511
73 1 190.667 120.477 -914.917 -206.636 256.047 -288.186 92.9503
43 1 186.355 121.088 -871.378 -212.862 2321.33 1441.7 88.8927
38 1 104.349 124.568 -43.9209 -247.58 595.705 890.241 24.9502
55 1 83.0253 125.973 171.397 -262.174 -131.015 -830.396 31.0277
37 1 163.135 126.04 -637.165 -262.85 -1074.64 -312.966 68.2945
52 1 113.42 127.853 -135.458 -281.111 1084.85 -805.609 30.9179
50 1 174.363 128.827 -750.37 -290.811 450.781 1074.58 79.7545
65 1 107.742 135.652 -77.9584 -359.893 -1450.02 722.032 36.4826
4 1 21.966 138.619 787.672 -389.783 -1079.07 1388.25 87.0673
76 1 47.5774 138.718 528.899 -390.811 -1669.09 -634.369 65.1706
26 1 16.5702 139.343 841.918 -397.064 -203.402 106.537 92.2408
33 1 68.7477 139.379 315.386 -397.371 -235.316 1372.64 50.2737
66 1 32.5217 142.894 680.874 -432.997 -396.574 -641.821 79.9574
19 1 102.147 142.272 -21.7744 -426.543 1247.27 -947.566 42.3265
85 1 155.844 142.259 -563.473 -426.373 875.906 -837.372 70.0314
91 1 8.04119 144.181 927.9 -445.971 637.665 1007.82 102.021
40 1 91.4614 143.464 86.1163 -438.586 -516.717 227.216 44.2945
42 1 52.7967 145.033 476.122 -454.414 -1799.01 501.14 65.2391
53 1 63.3053 146.222 370.228 -466.528 -1146.32 -650.257 59.0171
27 1 156.092 146.94 -565.878 -473.433 875.664 -1102.7 73.1412
88 1 138.055 151.476 -383.995 -519.667 1678.02 940.309 64.0157
32 1 90.1663 156.987 99.1852 -575.172 1141.42 1593.53 57.8288
31 1 55.5896 157.556 448.179 -580.829 -724.408 -1089.27 72.6977
54 1 171.419 158.709 -720.762 -592.349 1233.81 -1045.46 92.4521
79 1 81.8965 162.554 182.551 -631.077 -782.215 1637.8 65.1207
61 1 143.393 163.036 -437.923 -636.068 32.471 -310.87 76.5275
78 1 91.2859 164.558 87.8024 -651.461 1291.7 -905.185 65.1435
63 1 100.664 168.398 -6.78229 -690.211 -530.787 138.837 68.4008
68 1 19.4587 174.499 812.8 -751.752 -1004.86 2064.62 109.713
47 1 66.1698 175.926 341.393 -766.26 -1289.91 410.702 83.1216
18 1 126.841 176.581 -270.824 -772.733 851.675 -537.593 81.149
92 1 81.0492 177.96 191.243 -786.606 -213.813 1392.44 80.2306
56 1 106.496 177.07 -65.461 -777.69 1451.62 2044.29 77.3433
57 1 138.799 177.585 -391.604 -782.879 1548.15 1198.5 86.7456
3 1 183.778 176.715 -845.349 -774.131 -566.95 1491.98 113.596
34 1 6.06414 179.146 948.024 -798.576 -46.5801 -318.999 122.833
94 1 28.2713 181.802 723.977 -825.389 -565.671 1185.88 108.796
95 1 134.888 184.817 -351.985 -855.837 -474.753 2301.41 91.7123
90 1 151.275 186.242 -517.407 -870.386 -798.363 1338.29 100.333
2 1 188.986 185.312 -898.026 -860.807 1014.14 -487.318 123.274
96 1 111.892 186.899 -119.914 -877.01 1304.9 248.062 87.7088
71 1 7.06604 189.19 937.879 -900.033 -1209.94 1653.66 128.808
29 1 152.372 194.846 -528.387 -956.987 1588.77 -612.673 108.344
ITEM: TIMESTEP
200
ITEM: NUMBER OF ATOMS
100
ITEM: BOX BOUNDS ff ff pp
0.0000000000000000e+00 2.0000000000000000e+02
0.0000000000000000e+00 2.0000000000000000e+02
-5.0000000000000000e-01 5.0000000000000000e-01
ITEM: ATOMS id type x y vx vy fx fy v_dist
24 1 11.118 5.44315 905.166 962.721 -1936.97 -1704.66 129.773
49 1 183.331 7.06847 -848.647 946.531 2309.27 -1075.95 124.821
64 1 56.9966 10.2006 437.838 914.461 -513.93 -1044.02 99.5652
81 1 14.7917 10.9993 867.659 906.252 748.012 -2266.13 123.214
87 1 25.0313 11.68 763.647 899.22 -1325.73 -238.254 115.848
60 1 138.363 12.6102 -390.403 889.974 -737.315 -2404.75 95.4396
100 1 131.226 13.7317 -318.044 878.462 641.074 -2424.31 91.7457
59 1 146.083 13.9236 -469.336 876.517 2147.74 -859.949 97.6361
75 1 127.424 14.6047 -279.255 869.442 -704.889 -2579.44 89.6907
15 1 114.666 16.9571 -149.315 845.532 958.58 -2113.61 84.328
84 1 39.5157 18.1237 615.967 833.873 -1411.13 -1419.78 101.794
30 1 83.82 20.5304 164.915 809.19 -917.252 -1229.99 81.1
12 1 92.4849 20.9853 76.5087 804.538 -772.651 -1545.99 79.3712
13 1 110.573 21.1257 -107.705 803.35 -773.29 -1561.82 79.5798
45 1 33.2305 23.669 680.068 777.37 -2164.45 946.35 101.413
48 1 56.8225 23.6194 439.642 777.811 -558.532 -82.0545 87.7399
44 1 18.3496 26.5735 831.426 747.984 263.284 -1686.47 109.81
41 1 2.51279 28.8946 992.833 724.072 -2307.08 -55.5792 120.664
97 1 173.047 33.2229 -743.914 680.165 1768.57 -1594.42 98.97
10 1 113.104 36.1057 -133.487 650.743 95.3945 978.467 65.2243
98 1 133.431 36.3678 -340.527 647.981 -812.365 23.6123 71.8798
17 1 177.14 36.324 -785.674 648.244 924.993 -939.722 100.026
5 1 49.5577 36.8441 513.512 643.091 -1198.99 -1653.82 80.8275
58 1 113.116 41.944 -133.544 591.375 -447.365 766.713 59.5192
74 1 80.3345 42.1743 200.412 588.977 599.2 613.528 61.0782
86 1 117.012 43.1931 -173.217 578.216 468.616 -807.893 59.2994
35 1 175.718 44.9247 -771.204 560.888 -165.365 -1838.93 93.6298
14 1 86.7372 46.8994 135.329 540.583 1311.88 -1594.58 54.7318
69 1 20.6368 50.4699 808.114 504.275 -1539.48 -68.88 93.5508
22 1 73.3148 60.2456 271.686 404.698 -1226.42 318.136 47.8802
20 1 43.3788 62.2726 576.866 384.349 -781.677 22.8982 68.039
36 1 93.9799 61.3959 61.2493 392.759 649.842 306.713 39.0707
99 1 192.828 62.4927 -945.012 381.978 -238.979 -1730.37 100.119
89 1 82.4232 63.334 179.178 373.474 242.775 -694.942 40.6613
46 1 143.964 63.626 -447.53 370.247 146.768 139.445 57.0604
8 1 119.334 65.7743 -196.79 348.37 -474.993 -176.084 39.309
28 1 133.864 68.1707 -344.992 324.52 1338.79 378.158 46.4748
1 1 180.49 67.6203 -819.565 329.858 1087.81 -1329.21 86.7586
11 1 186.717 67.686 -882.968 329.205 964.829 1174.11 92.5422
70 1 167.673 69.7761 -688.895 307.819 386.949 -1123.28 74.1159
72 1 158.659 78.6938 -597.417 216.86 1721.56 754.388 62.4084
16 1 116.407 79.915 -166.883 204.008 -979.869 487.474 25.9348
67 1 34.9948 82.7655 662.024 175.524 1040.69 99.2839 67.251
23 1 28.8723 89.9734 724.199 102.266 284.537 78.4686 71.8309
77 1 82.5758 88.9823 176.947 112.24 619.759 261.496 20.6153
25 1 126.8 91.2787 -272.202 88.8127 -491.985 568.304 28.183
93 1 68.5007 97.2974 320.86 27.3978 -973.053 -1732.2 31.615
62 1 2.64546 99.62 991.674 4.12518 -1032.98 402.136 97.3553
7 1 120.49 99.7651 -208.304 2.26625 1197.45 1132.61 20.4918
39 1 134.147 100.096 -347.557 -0.79772 1311.58 962.997 34.1467
9 1 26.7276 106.153 746.094 -62.4436 441.645 36.8316 73.5302
80 1 44.0225 105.577 570.075 -56.93 -1247.68 -1542.16 56.2546
6 1 62.2152 105.997 384.705 -60.9417 -504.394 -1301.22 38.2577
82 1 103.651 107.098 -36.8854 -71.9716 1652.88 -1490.1 7.9816
21 1 156.993 108.429 -580.507 -86.0524 737.35 -1002.73 57.6129
51 1 104.012 113.829 -40.8085 -140.435 481.31 267.381 14.3989
83 1 94.0766 117.278 60.296 -175.484 -228.335 -726.709 18.2654
73 1 189.752 120.27 -913.926 -206.386 2324 -1109.53 92.0128
43 1 185.484 120.876 -870.586 -212.548 -514.844 290.286 87.9962
38 1 104.305 124.321 -43.9148 -247.103 104.006 40.0976 24.699
55 1 83.1967 125.711 171.26 -261.925 -103.146 -919.852 30.7146
37 1 162.498 125.778 -636.478 -262.42 768.642 1121.05 67.6056
52 1 113.285 127.573 -135.292 -280.727 -405.149 1278.01 30.6061
50 1 173.612 128.536 -749.744 -290.49 866.477 -218.013 78.9501
65 1 107.664 135.292 -77.9453 -359.414 543.966 -496.343 36.1146
4 1 22.7533 138.229 786.887 -389.313 -1829.88 1870.22 86.1889
76 1 48.106 138.327 528.32 -390.443 -1042.23 1349.31 64.5134
26 1 17.4118 138.946 841.142 -396.615 -1423.84 -136.11 91.3104
33 1 69.063 138.982 315.082 -396.968 -1720.01 -416.688 49.7666
66 1 33.2023 142.461 680.235 -432.282 -1638.47 -1224.62 79.151
19 1 102.125 141.846 -21.8099 -426.021 551.1 390.55 41.8996
85 1 155.281 141.833 -562.957 -425.977 1141.29 2010.33 69.3251
91 1 8.96867 143.735 927.053 -445.463 -2231.66 -769.26 100.992
40 1 91.5475 143.025 85.927 -438.124 460.629 1383.68 43.8477
42 1 53.2726 144.579 475.685 -454.035 -992.287 276.237 64.5813
53 1 63.6754 145.756 369.966 -465.975 1226.12 1217.42 58.4218
27 1 155.526 146.467 -565.448 -472.957 212.674 128.621 72.4037
88 1 137.671 150.957 -383.608 -519.158 -1223.67 -37.2138 63.3698
32 1 90.2655 156.412 99.2295 -574.585 -711.355 -290.752 57.2454
31 1 56.0375 156.975 447.685 -580.171 -1544.5 1882.62 71.9644
54 1 170.699 158.117 -720.073 -591.839 864.586 1374.92 91.5196
79 1 82.079 161.923 182.402 -630.335 1239.84 1251.14 64.4641
61 1 142.955 162.4 -437.648 -635.525 223.301 1136.19 75.7556
78 1 91.3737 163.907 87.694 -651.025 -1276.5 -99.3366 64.4864
63 1 100.657 167.708 -6.7205 -689.622 -1301.17 -387.134 67.7108
68 1 20.2711 173.747 812.04 -750.875 -1241.23 311.507 108.607
47 1 66.511 175.16 341.061 -765.467 980.632 -749.444 82.2831
18 1 126.571 175.809 -270.447 -771.931 -274.632 1871.62 80.3306
92 1 81.2404 177.174 191.149 -785.677 518.956 -594.785 79.4215
56 1 106.43 176.293 -65.4052 -776.814 -934.415 2499.1 76.5633
57 1 138.408 176.803 -391.209 -781.928 117.999 2277.61 85.8708
3 1 182.933 175.941 -844.547 -773.469 421.529 2005.37 112.45
34 1 7.01171 178.348 947.143 -797.677 -1361.2 59.0396 121.594
94 1 28.9949 180.977 723.345 -824.49 482.58 1546.01 107.699
95 1 134.536 183.962 -351.734 -854.983 -877.304 -29.8335 90.7873
90 1 150.758 185.372 -516.881 -869.617 1187.15 2244.33 99.3213
2 1 188.088 184.452 -897.114 -859.787 1532.54 -238.35 122.031
96 1 111.772 186.022 -119.931 -876.107 381.664 620.467 86.8241
71 1 8.00338 188.29 936.813 -899.235 -520.017 -165.954 127.509
29 1 151.844 193.889 -527.692 -956.1 886.961 117.525 107.252
ITEM: TIMESTEP
300
ITEM: NUMBER OF ATOMS
100
ITEM: BOX BOUNDS ff ff pp
0.0000000000000000e+00 2.0000000000000000e+02
0.0000000000000000e+00 2.0000000000000000e+02
-5.0000000000000000e-01 5.0000000000000000e-01
ITEM: ATOMS id type x y vx vy fx fy v_dist
24 1 12.0227 6.40535 904.272 961.75 -1271.4 -2077.03 128.452
49 1 182.483 8.01452 -847.615 945.581 -831.541 -907.529 123.551
64 1 57.4342 11.1146 437.354 913.457 378.221 717.935 98.5519
81 1 15.6589 11.9051 866.69 905.426 -1386.32 -2511.94 121.96
87 1 25.7946 12.5787 762.891 898.224 -311.707 169.626 114.669
60 1 137.973 13.4997 -390.014 889.127 1464.63 826.529 94.4682
100 1 130.908 14.6096 -317.486 877.535 1058.1 -2128.47 90.812
59 1 145.614 14.7998 -468.966 875.813 237.772 -2128.32 96.6423
75 1 127.145 15.4736 -278.983 868.434 1863.93 -1848.12 88.7781
15 1 114.517 17.8022 -149.146 844.556 -1335.24 -1837.2 83.4699
84 1 40.1314 18.9572 615.486 832.936 -2238.34 381.641 100.758
30 1 83.9849 21.3391 164.672 808.3 -1533.13 -1315.31 80.2746
12 1 92.5614 21.7894 76.392 803.694 -293.353 -274.835 78.5635
13 1 110.465 21.9287 -107.584 802.591 -1184.33 -803.97 78.7696
45 1 33.9102 24.446 679.422 776.579 -1316.32 -1247.85 100.381
48 1 57.262 24.3968 439.242 776.938 -1038.87 -2317.56 86.8469
44 1 19.1807 27.3211 830.645 747.172 -608.356 -246.202 108.692
41 1 3.50507 29.6184 991.805 723.437 -369.139 -183.791 119.436
97 1 172.304 33.9027 -743.017 679.454 1230.31 -885.426 97.9626
10 1 112.971 36.7561 -133.421 650.116 435.37 -2010.75 64.5603
98 1 133.091 37.0156 -340.189 647.49 -29.1927 -656.298 71.148
17 1 176.355 36.972 -784.962 647.658 2027.69 -1597.63 99.0082
5 1 50.0709 37.4868 513.004 642.466 -1075.26 -1349.07 80.0051
58 1 112.983 42.5352 -133.392 590.962 -954.108 -1238.86 58.9132
74 1 80.5348 42.763 200.143 588.419 -1500.51 -454.79 60.4563
86 1 116.838 43.771 -173.159 577.663 1278.61 -1239.71 58.696
35 1 174.947 45.4852 -770.475 560.307 856.084 -1127.25 92.6766
14 1 86.8724 47.4398 135.175 540.194 -926.854 655.319 54.1748
69 1 21.4446 50.974 807.533 503.876 -1565.18 -1567.84 92.5986
22 1 73.5864 60.6502 271.554 404.319 -1340.34 -403.25 47.3929
20 1 43.9555 62.6568 576.401 384.009 -931.93 -2031.87 67.3461
36 1 94.0413 61.7885 61.3192 392.404 -830.426 890.829 38.6733
99 1 191.883 62.8744 -944.25 381.508 -82.9459 -441.194 99.1002
89 1 82.6023 63.7072 178.867 373.07 -1200.53 -712.829 40.2473
46 1 143.517 63.9961 -447.095 369.865 -1054.07 -457.276 56.4798
8 1 119.137 66.1225 -196.784 348.15 551.364 -1276.94 38.9089
28 1 133.52 68.4952 -344.547 324.314 1640.03 -1670.31 46.0013
1 1 179.671 67.95 -818.602 329.592 1742.84 128.076 85.8756
11 1 185.835 68.015 -882.18 328.971 40.2205 -692.42 91.6003
70 1 166.985 70.0838 -688.114 307.48 2029.01 -1566.94 73.3618
72 1 158.062 78.9106 -596.956 216.694 1052.17 550.303 61.7731
16 1 116.241 80.1189 -166.501 203.74 1523.28 214.448 25.6714
67 1 35.6565 82.941 661.382 175.363 246.599 -1347.66 66.5665
23 1 29.5962 90.0756 723.467 102.173 -1069.61 1598.2 71.0999
77 1 82.7526 89.0944 176.624 112.054 769.06 724.146 20.406
25 1 126.528 91.3676 -271.462 88.7725 362.122 718.748 27.897
93 1 68.8213 97.3247 320.327 27.2445 1257.96 181.767 31.2933
62 1 3.63667 99.6241 990.77 4.16309 -371.454 -1524.37 96.3641
7 1 120.282 99.7672 -207.858 2.17449 742.956 -1230.96 20.2837
39 1 133.799 100.095 -347.146 -0.815829 1084.84 1271.04 33.7993
9 1 27.4733 106.09 745.131 -62.3848 -1264.43 -90.4354 72.782
80 1 44.5923 105.52 569.453 -56.9057 -1479.53 -1032.38 55.682
6 1 62.5997 105.936 384.368 -60.873 -795.15 -279.332 37.8684
82 1 103.614 107.026 -36.8178 -71.7363 -1531.6 1025.91 7.90088
21 1 156.413 108.343 -580.018 -86.0548 648.472 1025.21 57.0263
51 1 103.972 113.688 -40.8762 -140.175 -316.148 -737.301 14.2528
83 1 94.1368 117.103 60.1212 -175.191 820.679 447.168 18.08
73 1 188.839 120.064 -912.955 -206.128 1828.69 1212.33 91.0764
43 1 184.614 120.663 -869.658 -212.142 -817.84 -255.972 87.1005
38 1 104.261 124.074 -43.9531 -246.63 1051.18 129.61 24.4483
55 1 83.3678 125.449 171.086 -261.719 -1463.67 -1289.39 30.4019
37 1 161.862 125.515 -635.763 -262.251 2089.95 1098.38 66.9175
52 1 113.149 127.292 -135.142 -280.474 1471.46 582.648 30.2946
50 1 172.863 128.246 -748.819 -289.924 1748.84 704.78 78.1465
65 1 107.586 134.933 -77.8412 -359.112 -776.757 568.574 35.747
4 1 23.5397 137.84 786.007 -388.755 -775.502 1822.37 85.3114
76 1 48.634 137.937 527.698 -390.062 467.39 1117.3 63.8568
26 1 18.2525 138.549 840.286 -396.097 740.612 -319.035 90.381
33 1 69.3779 138.586 314.713 -396.566 145.584 988.265 49.2601
66 1 33.8822 142.029 679.547 -431.792 -1389.53 -57.1338 78.3454
19 1 102.103 141.42 -21.745 -425.669 -1223.86 -658.573 41.4732
85 1 154.718 141.408 -562.255 -425.425 818.309 527.817 68.6196
91 1 9.89515 143.29 925.97 -445.018 -1082.03 2008.84 99.9645
40 1 91.6335 142.587 86.0489 -437.642 1024.23 1086.81 43.4015
42 1 53.7479 144.125 474.955 -453.699 1162.66 1983.23 63.9241
53 1 64.0452 145.29 369.571 -465.588 -1631.12 -1237.29 57.827
27 1 154.961 145.994 -564.956 -472.408 1462.97 289.16 71.6669
88 1 137.288 150.438 -383.104 -518.569 1181.17 1013.93 62.7247
32 1 90.3647 155.837 99.2225 -574.173 1484.18 2087.31 56.6625
31 1 56.485 156.395 447.225 -579.619 -159.348 1102.3 71.232
54 1 169.979 157.525 -719.364 -591.218 1789.66 -281.243 90.5879
79 1 82.2612 161.293 182.118 -629.756 -1741.78 2038.41 63.8082
61 1 142.517 161.765 -437.141 -634.976 1994.73 875.344 74.9843
78 1 91.4615 163.256 87.7915 -650.33 -831.388 313.828 63.8298
63 1 100.65 167.018 -6.47724 -688.959 -480.563 -417.267 67.0215
68 1 21.0827 172.997 811.137 -750.046 -297.734 2303.36 107.501
47 1 66.852 174.395 340.8 -764.822 333.334 1581.53 81.4454
18 1 126.301 175.037 -270.061 -771.289 -170.632 877.353 79.5131
92 1 81.4315 176.389 190.957 -784.856 -990.643 -632.555 78.6134
56 1 106.365 175.516 -65.2311 -776.145 1716.6 -408.89 75.7841
57 1 138.016 176.021 -390.877 -781.41 1866.2 -741.065 84.9967
3 1 182.089 175.168 -843.681 -772.583 2386.57 1112.34 111.306
34 1 7.95837 177.55 946.23 -796.948 -1855.45 1334.1 120.357
94 1 29.7179 180.153 722.713 -823.83 -883.472 -366.663 106.602
95 1 134.185 183.107 -351.322 -854.093 -280.989 1397.94 89.8633
90 1 150.242 184.502 -516.454 -868.711 281.782 -337.699 98.3102
2 1 187.192 183.592 -896.248 -859.011 1431.44 -127.192 120.789
96 1 111.652 185.147 -119.98 -875.188 -1202.07 -692.982 85.9402
71 1 8.9397 187.392 935.832 -898.22 -2100.86 2300.61 126.211
29 1 151.316 192.934 -527.338 -955.224 799.587 2283.22 106.16
ITEM: TIMESTEP
400
ITEM: NUMBER OF ATOMS
100
ITEM: BOX BOUNDS ff ff pp
0.0000000000000000e+00 2.0000000000000000e+02
0.0000000000000000e+00 2.0000000000000000e+02
-5.0000000000000000e-01 5.0000000000000000e-01
ITEM: ATOMS id type x y vx vy fx fy v_dist
24 1 12.9265 7.36652 903.239 960.608 -2155.79 -1035.05 127.133
49 1 181.636 8.95965 -846.882 944.714 -459.246 -1445.56 122.282
64 1 57.8713 12.0276 436.79 912.558 1105.65 -2428.45 97.5396
81 1 16.5251 12.81 865.675 904.422 -2215.13 -1774.06 120.707
87 1 26.5572 13.4765 762.347 897.209 911.547 -1712.19 113.491
60 1 137.583 14.3883 -389.58 888.21 1382.3 -617.752 93.4979
100 1 130.591 15.4868 -317.074 876.705 381.565 -1587.14 89.8793
59 1 145.145 15.6752 -468.636 874.957 1284.3 -1165.53 95.6493
75 1 126.866 16.3417 -278.734 867.632 1957.21 -2007.32 87.8663
15 1 114.368 18.6462 -149.011 843.551 993.177 -240.591 82.6128
84 1 40.7465 19.7897 614.822 831.927 -505.076 -1602.76 99.723
30 1 84.1494 22.147 164.374 807.413 80.333 138.165 79.4502
12 1 92.6378 22.5927 76.4495 802.777 -623.091 -1277.97 77.7567
13 1 110.357 22.7309 -107.58 801.744 1745.27 -1227.95 77.9602
45 1 34.5893 25.2221 678.628 775.759 -1348.32 831.201 99.3493
48 1 57.7009 25.1733 438.715 776.087 700.129 -843.299 85.9549
44 1 20.0108 28.0679 829.655 746.634 231.351 -1997.09 107.575
41 1 4.49634 30.3415 990.8 722.775 401.904 -2406.35 118.209
97 1 171.561 34.5818 -742.298 678.82 558.837 -903.928 96.9562
10 1 112.837 37.406 -133.403 649.558 858.891 718.872 63.8969
98 1 132.751 37.6628 -339.912 646.871 918.721 -737.558 70.4169
17 1 175.571 37.6194 -784.264 647.151 2139.55 572.297 97.991
5 1 50.5837 38.129 512.465 641.924 -1625.5 249.967 79.1833
58 1 112.85 43.1258 -133.292 590.388 1409.26 -696.944 58.3077
74 1 80.7347 43.3511 199.698 587.667 362.513 160.096 59.8352
86 1 116.665 44.3484 -173.043 577.166 1701.43 -2223.49 58.0933
35 1 174.177 46.0452 -769.617 559.546 2415.03 -875.15 91.7245
14 1 87.0075 47.9797 134.914 539.746 -40.004 -2150.48 53.6182
69 1 22.2517 51.4774 806.718 503.166 -2292.45 -376.017 91.6473
22 1 73.8577 61.0544 271.166 404.082 160.169 585.106 46.9061
20 1 44.5316 63.0406 575.773 383.647 -2019.4 1020.49 66.6539
36 1 94.1026 62.1808 61.3738 392.05 -890.145 -614.71 38.2763
99 1 190.94 63.2557 -943.106 381.218 751.295 -72.8676 98.0824
89 1 82.7811 64.0801 178.691 372.683 468.298 -1972.97 39.8338
46 1 143.07 64.3657 -446.575 369.409 800.498 -305.286 55.8999
8 1 118.94 66.4705 -196.623 347.852 585.125 702.091 38.5092
28 1 133.175 68.8193 -344.035 324.004 -847.771 503.445 45.5285
1 1 178.853 68.2795 -817.647 329.31 2154.31 -239.051 84.9936
11 1 184.953 68.3438 -881.204 328.632 -264.136 -2054.08 90.6593
70 1 166.297 70.3911 -687.273 307.207 204.291 -1744.64 72.6086
72 1 157.465 79.1271 -596.334 216.414 -660.384 -378.365 61.1384
16 1 116.074 80.3224 -166.193 203.427 1371.16 -543.356 25.4085
67 1 36.3175 83.1163 660.744 175.243 -383.074 -1601.97 65.8826
23 1 30.3193 90.1777 722.8 102.089 -1500.11 -650.154 70.3695
77 1 82.9291 89.2064 176.224 112.007 -964.975 -1837.41 20.197
25 1 126.257 91.4562 -270.621 88.6374 1603.36 3.97223 27.6119
93 1 69.1415 97.352 319.997 27.2806 -76.4827 1592.8 30.9719
62 1 4.62706 99.6283 989.963 4.24604 295.956 1464.26 95.3737
7 1 120.075 99.7694 -207.5 2.30321 -185.535 -59.3579 20.076
39 1 133.452 100.094 -346.891 -0.845894 1443.35 -89.1111 33.4523
9 1 28.218 106.028 744.252 -62.2205 -2322.54 -617.205 72.0347
80 1 45.1615 105.463 569.044 -56.8155 802.806 285.571 55.1099
6 1 62.9839 105.875 384.097 -60.8549 222.674 1392.19 37.4795
82 1 103.577 106.954 -36.7164 -71.6585 508.945 1358.75 7.82028
21 1 155.833 108.257 -579.435 -85.7858 1374.58 -771.044 56.4402
51 1 103.931 113.548 -40.7714 -139.953 1411.39 694.786 14.1069
83 1 94.197 116.928 60.0864 -175.014 592.198 -468.773 17.8948
73 1 187.926 119.858 -912.091 -205.915 173.933 189.169 90.1409
43 1 183.745 120.451 -868.807 -212.065 2260.3 1738.64 86.2057
38 1 104.217 123.828 -43.9169 -246.106 1470.17 -191.071 24.1981
55 1 83.5388 125.187 170.953 -261.389 1147.79 -692.609 30.0894
37 1 161.227 125.253 -635.158 -261.978 -644.153 -368.102 66.2301