LAMMPS (29 Aug 2024 - Update 1)
  using 4 OpenMP thread(s) per MPI task
# LAMMPS Input Script: Gradually lower velocity for atoms closer to the center

# --- Initialization ---
units lj          # Use Lennard-Jones units
atom_style ellipsoid
dimension 3       # 3D simulation
boundary f f p    # Set boundary conditions: fixed (non-periodic) in x and y, periodic in z (standard for 2D)

# --- System Definition ---
variable box_size equal 200
variable half_box equal ${box_size}/2
variable half_box equal 200/2
region box block 0 ${box_size} 0 ${box_size} -0.5 0.5 units box # Define simulation box boundaries
region box block 0 200 0 ${box_size} -0.5 0.5 units box 
region box block 0 200 0 200 -0.5 0.5 units box 
create_box 1 box                     # Create the simulation box with 1 atom type
Created orthogonal box = (0 0 -0.5) to (200 200 0.5)
  1 by 1 by 1 MPI processor grid

create_atoms 1 random 100 12345 NULL overlap 3.9 maxtry 50
Created 100 atoms
  using lattice units in orthogonal box = (0 0 -0.5) to (200 200 0.5)
  create_atoms CPU = 0.001 seconds

# --- Define the circular slowing region and related variables ---
variable center_x equal ${half_box}
variable center_x equal 100
variable center_y equal ${half_box}
variable center_y equal 100
variable inner_radius equal 1.0   # Radius where maximum damping starts
variable outer_radius equal 50.0   # Radius where damping ends (beyond this, no damping)

# Group for atoms within the outer_radius of the damping region
region damping_region sphere ${center_x} ${center_y} 0.0 ${outer_radius} units box
region damping_region sphere 100 ${center_y} 0.0 ${outer_radius} units box
region damping_region sphere 100 100 0.0 ${outer_radius} units box
region damping_region sphere 100 100 0.0 50 units box
group damp_group region damping_region
21 atoms in group damp_group

# Set ellipsoid shape
# This sets the semi-axes lengths for a sphere
set type 1 shape 0.5 0.5 0.5
Setting atom values ...
  100 settings made for shape

set atom 1 mass 1.0                           # Set mass of atom type 1
Setting atom values ...
  1 settings made for mass

# --- Variables for initial velocities ---
variable vel_scale equal 10              # Scaling factor for initial velocity magnitude (adjust if needed)

# --- Interactions ---
pair_style lj/cut 2.5
pair_coeff 1 1 1.0 1.0 2.5

# --- Initial Velocities --
variable vx_init atom v_vel_scale*(${half_box}-x)
variable vx_init atom v_vel_scale*(100-x)
variable vy_init atom v_vel_scale*(${half_box}-y)
variable vy_init atom v_vel_scale*(100-y)
# Apply the calculated velocities to all atoms, initializing at zero total linear momentum
velocity all set v_vx_init v_vy_init 0.0 sum yes
# velocity damp_group set 0.0 0.0 0.0 sum no
# velocity damp_group ramp vx 1 0 x ${center_x}-${outer_radius} ${center_x}+${outer_radius} sum no
# velocity damp_group ramp vy 1 0 y ${center_y}-${outer_radius} ${center_y}+${outer_radius} sum no

variable min_x equal ${center_x}-${outer_radius}
variable min_x equal 100-${outer_radius}
variable min_x equal 100-50
variable max_x equal ${center_x}+${outer_radius}
variable max_x equal 100+${outer_radius}
variable max_x equal 100+50
variable min_y equal ${center_y}-${outer_radius}
variable min_y equal 100-${outer_radius}
variable min_y equal 100-50
variable max_y equal ${center_y}-${outer_radius}
variable max_y equal 100-${outer_radius}
variable max_y equal 100-50

velocity damp_group ramp vx 1 0 x ${min_x} ${max_x} sum yes
velocity damp_group ramp vx 1 0 x 50 ${max_x} sum yes
velocity damp_group ramp vx 1 0 x 50 150 sum yes
velocity damp_group ramp vy 1 0 y ${min_y} ${max_y} sum yes
velocity damp_group ramp vy 1 0 y 50 ${max_y} sum yes
velocity damp_group ramp vy 1 0 y 50 50 sum yes


#ramp args = vdim vlo vhi dim clo chi
#  vdim = vx or vy or vz
#  vlo,vhi = lower and upper velocity value (velocity units)
#  dim = x or y or z
#  clo,chi = lower and upper coordinate bound (distance units)


# --- Velocity Damping based on distance ---
# Calculate the distance of each atom from the center of the slowing region
variable dist atom sqrt((x-${center_x})^2+(y-${center_y})^2)
variable dist atom sqrt((x-100)^2+(y-${center_y})^2)
variable dist atom sqrt((x-100)^2+(y-100)^2)

# Calculate a damping coefficient (gamma) that increases as distance decreases
# - Be 0 when dist >= outer_radius
# - Be 1 when dist <= inner_radius
# - Linearly interpolate between 0 and 1 for inner_radius < dist < outer_radius
variable damping_coeff atom ramp(v_dist,${inner_radius},${outer_radius},1.0,0.0)
variable damping_coeff atom ramp(v_dist,1,${outer_radius},1.0,0.0)
variable damping_coeff atom ramp(v_dist,1,50,1.0,0.0)

# We want damping_coeff to be 0 at outer_radius, and max_damping at inner_radius
# max_damping * (outer_radius - dist) / (outer_radius - inner_radius)
variable max_damping equal 1.0 # Adjust this value to control the maximum damping strength

# variable gamma_val atom "v_max_damping * (max(0.0, ${outer_radius}-v_dist) / (${outer_radius}-${inner_radius}))"
variable gamma_val equal 0.1*step

# Apply viscous damping using fix viscous
# The 'gamma' (damping coefficient) is applied to each component of velocity.
# A higher gamma value means stronger damping.
# We apply it to 'damp_group' which includes all atoms within outer_radius


# --- Integration ---
fix 1 all nve
fix 2 all langevin 5.0 5.0 0.1 48279
fix 3 damp_group viscous ${gamma_val}
fix 3 damp_group viscous 0

# --- Simulation Settings ---
timestep 0.00001 # Timestep for integration (in lj time units) - Keep it small for stability
thermo 100     # Output thermodynamic info every 100 steps
thermo_style custom step temp pe ke etotal press vol atoms # Added 'atoms' to check count

# --- Output ---
# Dump atom positions and velocities every 100 steps to log.lammpstrj file
dump 1 all custom 100 central_slowed_2.in.lammpstrj id type x y vx vy fx fy v_dist

# --- Run Simulation ---
run 250000
Generated 0 of 0 mixed pair_coeff terms from geometric mixing rule
Neighbor list info ...
  update: every = 1 steps, delay = 0 steps, check = yes
  max neighbors/atom: 2000, page size: 100000
  master list distance cutoff = 2.8
  ghost atom cutoff = 2.8
  binsize = 1.4, bins = 143 143 1
  1 neighbor lists, perpetual/occasional/extra = 1 0 0
  (1) pair lj/cut, perpetual
      attributes: half, newton on
      pair build: half/bin/atomonly/newton
      stencil: half/bin/3d
      bin: standard
Per MPI rank memory allocation (min/avg/max) = 9.665 | 9.665 | 9.665 Mbytes
   Step          Temp          PotEng         KinEng         TotEng         Press          Volume        Atoms   
         0   219779.52     -0.061523437    326372.58      326372.52      543.974        40000                100 
       100   215436.68     -0.061523437    319923.47      319923.41      533.22548      40000                100 
       200   211177.76     -0.061523437    313598.97      313598.91      522.68465      40000                100 
       300   206967.89     -0.061523437    307347.32      307347.26      512.26524      40000                100 
       400   202871.82     -0.061523437    301264.65      301264.59      502.12745      40000                100 
       500   198863.16     -0.061523437    295311.8       295311.73      492.20602      40000                100 
       600   194928.26     -0.061523437    289468.47      289468.41      482.46714      40000                100 
       700   191089.25     -0.061523437    283767.53      283767.47      472.96559      40000                100 
       800   187313.7      -0.061523437    278160.85      278160.79      463.62111      40000                100 
       900   183623.36     -0.061523437    272680.69      272680.63      454.48752      40000                100 
      1000   180011.38     -0.061523437    267316.89      267316.83      445.54785      40000                100 
      1100   176412.32     -0.061523437    261972.29      261972.23      436.64018      40000                100 
      1200   172944.12     -0.061523437    256822.02      256821.96      428.0564       40000                100 
      1300   169532.22     -0.061523437    251755.35      251755.29      419.61195      40000                100 
      1400   166193.33     -0.061523437    246797.1       246797.04      411.3482       40000                100 
      1500   162893.42     -0.061523437    241896.73      241896.67      403.18092      40000                100 
      1600   159657.81     -0.061523437    237091.85      237091.79      395.17278      40000                100 
      1700   156508.62     -0.061523437    232415.31      232415.24      387.37854      40000                100 
      1800   153393.91     -0.061523437    227789.96      227789.9       379.66963      40000                100 
      1900   150348.06     -0.061523437    223266.87      223266.81      372.13115      40000                100 
      2000   147388.96     -0.061523437    218872.6       218872.54      364.80736      40000                100 
      2100   144484.37     -0.061523437    214559.28      214559.22      357.6185       40000                100 
      2200   141607.68     -0.061523437    210287.4       210287.34      350.4987       40000                100 
      2300   138798.83     -0.061523437    206116.26      206116.2       343.54679      40000                100 
      2400   136046.29     -0.061523437    202028.75      202028.69      336.73428      40000                100 
      2500   133351.24     -0.061523437    198026.59      198026.53      330.06402      40000                100 
      2600   130693.79     -0.061523437    194080.27      194080.21      323.48682      40000                100 
      2700   128109.99     -0.061523437    190243.33      190243.27      317.09192      40000                100 
      2800   125598.66     -0.061523437    186514.01      186513.95      310.87638      40000                100 
      2900   123117.75     -0.061523437    182829.86      182829.8       304.73613      40000                100 
      3000   120676.8      -0.061523437    179205.04      179204.98      298.69477      40000                100 
      3100   118274.11     -0.061523437    175637.06      175637         292.74813      40000                100 
      3200   115941.16     -0.061523437    172172.62      172172.55      286.97406      40000                100 
      3300   113660.02     -0.061523437    168785.13      168785.07      281.32825      40000                100 
      3400   111431.15     -0.061523437    165475.26      165475.2       275.8118       40000                100 
      3500   109202.59     -0.061523437    162165.84      162165.78      270.2961       40000                100 
      3600   107029.05     -0.061523437    158938.14      158938.08      264.91659      40000                100 
      3700   104899.34     -0.061523437    155775.52      155775.45      259.64556      40000                100 
      3800   102834.16     -0.061523437    152708.73      152708.67      254.53425      40000                100 
      3900   100788.89     -0.061523437    149671.5       149671.44      249.4722       40000                100 
      4000   98784.855     -0.061523437    146695.51      146695.45      244.51221      40000                100 
      4100   96840.207     -0.061523437    143807.71      143807.65      239.69921      40000                100 
      4200   94909.925     -0.061523437    140941.24      140941.18      234.92176      40000                100 
      4300   93041.809     -0.061523437    138167.09      138167.02      230.29817      40000                100 
      4400   91210.067     -0.061523437    135446.95      135446.89      225.76461      40000                100 
      4500   89404.373     -0.061523437    132765.49      132765.43      221.29552      40000                100 
      4600   87639.921     -0.061523437    130145.28      130145.22      216.9285       40000                100 
      4700   85915.06      -0.061694019    127583.86      127583.8       212.65947      40000                100 
      4800   84207.254     -0.061878736    125047.77      125047.71      208.43265      40000                100 
      4900   82533.51      -0.061903169    122562.26      122562.2       204.29013      40000                100 
      5000   80894.638     -0.062093036    120128.54      120128.48      200.23392      40000                100 
      5100   79316.611     -0.062130818    117785.17      117785.11      196.32831      40000                100 
      5200   77741.257     -0.062171118    115445.77      115445.7       192.4293       40000                100 
      5300   76182.267     -0.062387429    113130.67      113130.6       188.5708       40000                100 
      5400   74658.989     -0.062445851    110868.6       110868.54      184.80069      40000                100 
      5500   73182.193     -0.062508173    108675.56      108675.49      181.14562      40000                100 
      5600   71736.411     -0.062574908    106528.57      106528.51      177.56731      40000                100 
      5700   70308.161     -0.062811565    104407.62      104407.56      174.03239      40000                100 
      5800   68910.269     -0.06306723     102331.75      102331.69      170.5726       40000                100 
      5900   67540.802     -0.063169055    100298.09      100298.03      167.18317      40000                100 
      6000   66197.161     -0.063278097    98302.785      98302.721      163.85766      40000                100 
      6100   64896.116     -0.063395689    96370.732      96370.668      160.63757      40000                100 
      6200   63615.846     -0.063849168    94469.531      94469.467      157.4689       40000                100 
      6300   62357.887     -0.064170885    92601.462      92601.397      154.35545      40000                100 
      6400   61112.357     -0.064340551    90751.851      90751.786      151.27277      40000                100 
      6500   59899.227     -0.064520272    88950.352      88950.288      148.27027      40000                100 
      6600   58711.967     -0.064711287    87187.271      87187.206      145.3318       40000                100 
      6700   57541.568     -0.064914322    85449.228      85449.163      142.43506      40000                100 
      6800   56398.932     -0.065297881    83752.414      83752.348      139.60703      40000                100 
      6900   55298.86      -0.065536164    82118.808      82118.742      136.88436      40000                100 
      7000   54202.657     -0.065787072    80490.946      80490.88       134.17125      40000                100 
      7100   53137.994     -0.066049453    78909.921      78909.855      131.53621      40000                100 
      7200   52101.715     -0.066821471    77371.047      77370.981      128.97142      40000                100 
      7300   51061.973     -0.067136689    75827.03       75826.962      126.39805      40000                100 
      7400   50050.697     -0.067470129    74325.285      74325.218      123.89514      40000                100 
      7500   49054.664     -0.067989343    72846.175      72846.107      121.42996      40000                100 
      7600   48088.434     -0.068366952    71411.324      71411.256      119.03854      40000                100 
      7700   47127.789     -0.068766014    69984.766      69984.697      116.66094      40000                100 
      7800   46194.727     -0.069361426    68599.17       68599.101      114.35161      40000                100 
      7900   45288.481     -0.069827563    67253.395      67253.325      112.10865      40000                100 
      8000   44393.805     -0.07049675     65924.8        65924.73       109.89432      40000                100 
      8100   43514.482     -0.071196326    64619.006      64618.935      107.71799      40000                100 
      8200   42651.587     -0.071768619    63337.607      63337.535      105.58233      40000                100 
      8300   41805.286     -0.072369543    62080.85       62080.777      103.48773      40000                100 
      8400   40986.322     -0.07300313     60864.688      60864.615      101.46079      40000                100 
      8500   40160.665     -0.074002635    59638.587      59638.513      99.417283      40000                100 
      8600   39376.215     -0.074717743    58473.68       58473.605      97.475767      40000                100 
      8700   38583.685     -0.075631968    57296.772      57296.697      95.51425       40000                100 
      8800   37813.198     -0.076574966    56152.598      56152.522      93.607289      40000                100 
      8900   37067.71      -0.077577497    55045.549      55045.471      91.762202      40000                100 
      9000   36339.887     -0.078473758    53964.732      53964.653      89.960837      40000                100 
      9100   35614.36      -0.079411525    52887.325      52887.246      88.165155      40000                100 
      9200   34916.752     -0.080558861    51851.377      51851.297      86.43857       40000                100 
      9300   34205.574     -0.08159151     50795.278      50795.196      84.6784        40000                100 
      9400   33526.014     -0.082812014    49786.131      49786.048      82.996484      40000                100 
      9500   32875.163     -0.083908552    48819.617      48819.533      81.385623      40000                100 
      9600   32231.602     -0.085083265    47863.929      47863.844      79.792805      40000                100 
      9700   31582.348     -0.086476236    46899.787      46899.7        78.185895      40000                100 
      9800   30949.484     -0.088108314    45959.983      45959.895      76.61955       40000                100 
      9900   30340.04      -0.089497869    45054.96       45054.87       75.111172      40000                100 
     10000   29744.216     -0.091110609    44170.16       44170.069      73.636501      40000                100 
     10100   29151.978     -0.092600667    43290.687      43290.594      72.170708      40000                100 
     10200   28567.866     -0.094165426    42423.281      42423.187      70.725027      40000                100 
     10300   27998.733     -0.096116068    41578.118      41578.022      69.316417      40000                100 
     10400   27446.696     -0.09776624     40758.344      40758.246      67.950123      40000                100 
     10500   26915.422     -0.099781919    39969.401      39969.301      66.635214      40000                100 
     10600   26378.954     -0.10146262     39172.747      39172.646      65.307456      40000                100 
     10700   25861.488     -0.10326705     38404.31       38404.206      64.026727      40000                100 
     10800   25355.936     -0.10516518     37653.565      37653.46       62.775489      40000                100 
     10900   24860.226     -0.1067404      36917.436      36917.329      61.548612      40000                100 
     11000   24365.401     -0.10822898     36182.62       36182.512      60.323928      40000                100 
     11100   23881.483     -0.10934997     35464.003      35463.894      59.12625       40000                100 
     11200   23404.82      -0.10989587     34756.158      34756.048      57.946533      40000                100 
     11300   22940.732     -0.10942619     34066.987      34066.878      56.797953      40000                100 
     11400   22478.696     -0.10791886     33380.864      33380.756      55.654464      40000                100 
     11500   22033.351     -0.10511266     32719.526      32719.421      54.5523        40000                100 
     11600   21599.879     -0.1005004      32075.82       32075.719      53.479544      40000                100 
     11700   21173.27      -0.093870629    31442.306      31442.212      52.4238        40000                100 
     11800   20753.374     -0.083928051    30818.761      30818.677      51.384705      40000                100 
     11900   20338.335     -0.070439043    30202.428      30202.358      50.35767       40000                100 
     12000   19935.405     -0.052802501    29604.076      29604.024      49.360649      40000                100 
     12100   19532.41      -0.030893258    29005.629      29005.598      48.363516      40000                100 
     12200   19144.576     -0.0047389491   28429.695      28429.69       47.40395       40000                100 
     12300   18766.852      0.026437807    27868.776      27868.802      46.46946       40000                100 
     12400   18389.942      0.061095783    27309.063      27309.124      45.53702       40000                100 
     12500   18023.169      0.098540269    26764.406      26764.505      44.629701      40000                100 
     12600   17668.433      0.14009524     26237.624      26237.764      43.752209      40000                100 
     12700   17322.014      0.18100664     25723.191      25723.372      42.895295      40000                100 
     12800   16984.84       0.22059746     25222.487      25222.707      42.061245      40000                100 
     12900   16652.47       0.25451225     24728.918      24729.173      41.239025      40000                100 
     13000   16323.975      0.28175071     24241.103      24241.385      40.426321      40000                100 
     13100   16002.831      0.29798978     23764.205      23764.503      39.631693      40000                100 
     13200   15682.649      0.30050101     23288.734      23289.035      38.8393        40000                100 
     13300   15366.537      0.2887736      22819.307      22819.596      38.056825      40000                100 
     13400   15063.369      0.26775605     22369.103      22369.371      37.306291      40000                100 
     13500   14769.887      0.23788215     21933.282      21933.52       36.579638      40000                100 
     13600   14475.193      0.19822333     21495.661      21495.859      35.849878      40000                100 
     13700   14194.951      0.15306714     21079.502      21079.655      35.155828      40000                100 
     13800   13915.423      0.10350047     20664.403      20664.506      34.463495      40000                100 
     13900   13648.61       0.053252796    20268.186      20268.24       33.802626      40000                100 
     14000   13379.493      0.0066556595   19868.547      19868.554      33.136092      40000                100 
     14100   13108.052     -0.036464709    19465.457      19465.421      32.463845      40000                100 
     14200   12841.975     -0.074694798    19070.333      19070.258      31.804924      40000                100 
     14300   12595.776     -0.10761788     18704.728      18704.62       31.195264      40000                100 
     14400   12353.579     -0.13603768     18345.064      18344.928      30.595557      40000                100 
     14500   12111.914     -0.15960004     17986.192      17986.033      29.997222      40000                100 
     14600   11875.504     -0.17969925     17635.123      17634.943      29.411933      40000                100 
     14700   11632.605     -0.19579539     17274.419      17274.223      28.810633      40000                100 
     14800   11397.891     -0.20907485     16925.869      16925.66       28.229624      40000                100 
     14900   11179.732     -0.21964288     16601.903      16601.683      27.689625      40000                100 
     15000   10956.855     -0.22694617     16270.929      16270.702      27.137984      40000                100 
     15100   10748.569     -0.23305666     15961.624      15961.391      26.622481      40000                100 
     15200   10540.937     -0.23683997     15653.291      15653.054      26.108624      40000                100 
     15300   10332.261     -0.23791062     15343.408      15343.17       25.592214      40000                100 
     15400   10128.794     -0.23728914     15041.258      15041.021      25.088722      40000                100 
     15500   9926.6667     -0.23377954     14741.1        14740.866      24.588583      40000                100 
     15600   9724.5797     -0.22732499     14441.001      14440.774      24.088579      40000                100 
     15700   9529.4002     -0.21773213     14151.159      14150.942      23.605708      40000                100 
     15800   9341.6248     -0.20438646     13872.313      13872.108      23.141206      40000                100 
     15900   9155.7785     -0.18819859     13596.331      13596.143      22.681518      40000                100 
     16000   8966.4903     -0.1678736      13315.238      13315.07       22.213361      40000                100 
     16100   8792.9385     -0.1432099      13057.514      13057.37       21.784199      40000                100 
     16200   8621.7662     -0.11757468     12803.323      12803.205      21.360942      40000                100 
     16300   8452.5129     -0.089186106    12551.982      12551.893      20.942465      40000                100 
     16400   8288.3837     -0.057338027    12308.25       12308.192      20.536713      40000                100 
     16500   8131.397      -0.024621212    12075.125      12075.1        20.148649      40000                100 
     16600   7971.3322      0.0070800729   11837.428      11837.435      19.752961      40000                100 
     16700   7812.8664      0.036838249    11602.107      11602.143      19.361216      40000                100 
     16800   7653.9832      0.063424943    11366.165      11366.228      18.968407      40000                100 
     16900   7504.2767      0.085142256    11143.851      11143.936      18.598263      40000                100 
     17000   7352.9043      0.097440223    10919.063      10919.16       18.2239        40000                100 
     17100   7206.0741      0.10932371     10701.02       10701.129      17.860784      40000                100 
     17200   7072.0748      0.11851139     10502.031      10502.15       17.529399      40000                100 
     17300   6930.2442      0.1279209      10291.413      10291.541      17.178634      40000                100 
     17400   6794.5111      0.13691829     10089.849      10089.986      16.842956      40000                100 
     17500   6658.3322      0.14925667     9887.6234      9887.7726      16.506217      40000                100 
     17600   6531.0473      0.16876916     9698.6052      9698.7739      16.191572      40000                100 
     17700   6401.3765      0.1948674      9506.0441      9506.2389      15.871092      40000                100 
     17800   6277.6269      0.22862238     9322.2759      9322.5046      15.56535       40000                100 
     17900   6151.4406      0.27147986     9134.8893      9135.1608      15.253673      40000                100 
     18000   6029.4297      0.32322082     8953.7032      8954.0264      14.952421      40000                100 
     18100   5911.1666      0.37586419     8778.0824      8778.4583      14.660457      40000                100 
     18200   5797.1551      0.42669431     8608.7753      8609.202       14.378997      40000                100 
     18300   5679.104       0.46563176     8433.4695      8433.9351      14.087418      40000                100 
     18400   5572.1679      0.49017898     8274.6693      8275.1594      13.823196      40000                100 
     18500   5458.1933      0.49901294     8105.417       8105.916       13.541386      40000                100 
     18600   5346.6388      0.48790338     7939.7587      7940.2466      13.265364      40000                100 
     18700   5237.9986      0.46487127     7778.428       7778.8929      12.996431      40000                100 
     18800   5132.3926      0.43009373     7621.6031      7622.0331      12.734888      40000                100 
     18900   5032.3382      0.396352       7473.0222      7473.4185      12.487098      40000                100 
     19000   4932.1858      0.36858167     7324.2959      7324.6645      12.239134      40000                100 
     19100   4835.9971      0.3519553      7181.4557      7181.8076      12.0011        40000                100 
     19200   4737.7085      0.3522312      7035.4971      7035.8493      11.758053      40000                100 
     19300   4648.9246      0.37551565     6903.653       6904.0285      11.538787      40000                100 
     19400   4557.2363      0.42941759     6767.4959      6767.9254      11.312663      40000                100 
     19500   4469.6059      0.51909202     6637.3648      6637.8839      11.096964      40000                100 
     19600   4381.026       0.65614069     6505.8237      6506.4798      10.879415      40000                100 
     19700   4296.943       0.851121       6380.9604      6381.8115      10.673604      40000                100 
     19800   4213.2083      1.1011058      6256.6143      6257.7154      10.469229      40000                100 
     19900   4131.9202      1.398538       6135.9015      6137.3001      10.271391      40000                100 
     20000   4048.7506      1.7123712      6012.3947      6014.1071      10.069055      40000                100 
     20100   3968.9093      2.0001827      5893.8303      5895.8305      9.8746883      40000                100 
     20200   3886.1272      2.1819111      5770.8989      5773.0808      9.6719405      40000                100 
     20300   3809.4146      2.2517608      5656.9807      5659.2325      9.4830623      40000                100 
     20400   3734.3879      2.1904837      5545.566       5547.7565      9.2969884      40000                100 
     20500   3657.3534      2.0451844      5431.1698      5433.215       9.1050661      40000                100 
     20600   3587.5269      1.8681679      5327.4775      5329.3457      8.9306461      40000                100 
     20700   3514.773       1.7033098      5219.4378      5221.1411      8.7490981      40000                100 
     20800   3445.7822      1.560561       5116.9866      5118.5472      8.577091       40000                100 
     20900   3378.6373      1.4444941      5017.2764      5018.7209      8.4099338      40000                100 
     21000   3312.2977      1.3611498      4918.7621      4920.1233      8.2451286      40000                100 
     21100   3246.3884      1.3353002      4820.8868      4822.2221      8.0820048      40000                100 
     21200   3183.9781      1.3723258      4728.2075      4729.5798      7.9282217      40000                100 
     21300   3123.4781      1.4805216      4638.365       4639.8455      7.7799237      40000                100 
     21400   3060.6429      1.6711862      4545.0546      4546.7258      7.626723       40000                100 
     21500   3002.3095      1.9328599      4458.4296      4460.3625      7.4854048      40000                100 
     21600   2943.212       2.2501367      4370.6698      4372.9199      7.3427838      40000                100 
     21700   2887.2672      2.588233       4287.5918      4290.1801      7.2081896      40000                100 
     21800   2831.5103      2.8691767      4204.7928      4207.662       7.0734694      40000                100 
     21900   2775.311       3.056035       4121.3368      4124.3928      6.9366884      40000                100 
     22000   2720.1289      3.1461687      4039.3915      4042.5376      6.8014298      40000                100 
     22100   2667.9482      3.1621587      3961.903       3965.0652      6.6728313      40000                100 
     22200   2614.325       3.1570257      3882.2726      3885.4297      6.5404423      40000                100 
     22300   2562.0856      3.1579258      3804.6971      3807.855       6.4115256      40000                100 
     22400   2510.036       3.1858557      3727.4034      3730.5893      6.2833527      40000                100 
     22500   2460.1309      3.2381936      3653.2943      3656.5325      6.1607137      40000                100 
     22600   2412.4555      3.3048181      3582.4965      3585.8013      6.0437426      40000                100 
     22700   2364.4244      3.3777009      3511.1702      3514.5479      5.9259536      40000                100 
     22800   2317.5487      3.4444174      3441.5599      3445.0043      5.8109597      40000                100 
     22900   2273.1241      3.5027709      3375.5893      3379.092       5.701941       40000                100 
     23000   2229.3943      3.5406214      3310.6505      3314.1911      5.594428       40000                100 
     23100   2184.3921      3.5611736      3243.8223      3247.3835      5.483565       40000                100 
     23200   2141.6601      3.5748434      3180.3653      3183.9401      5.378226       40000                100 
     23300   2099.6959      3.5711251      3118.0484      3121.6195      5.2745921      40000                100 
     23400   2059.6973      3.556413       3058.6505      3062.207       5.1756938      40000                100 
     23500   2021.8892      3.5279758      3002.5054      3006.0334      5.0820663      40000                100 
     23600   1982.5062      3.4493475      2944.0217      2947.471       4.9840142      40000                100 
     23700   1943.6675      3.3098983      2886.3463      2889.6562      4.8866726      40000                100 
     23800   1904.2502      3.1141541      2827.8116      2830.9257      4.7873222      40000                100 
     23900   1867.4609      2.8621068      2773.1795      2776.0416      4.6939025      40000                100 
     24000   1831.4469      2.591404       2719.6987      2722.2901      4.6022263      40000                100 
     24100   1793.3691      2.3233082      2663.1532      2665.4765      4.5054847      40000                100 
     24200   1756.5213      2.1063944      2608.4342      2610.5405      4.4123387      40000                100 
     24300   1723.285       1.958071       2559.0782      2561.0363      4.328884       40000                100 
     24400   1688.6229      1.8874413      2507.6049      2509.4924      4.2427431      40000                100 
     24500   1656.3855      1.9219523      2459.7324      2461.6544      4.1637473      40000                100 
     24600   1626.658       2.0730861      2415.5872      2417.6603      4.0922243      40000                100 
     24700   1596.1263      2.3321086      2370.2475      2372.5796      4.0198775      40000                100 
     24800   1564.8473      2.6921984      2323.7982      2326.4904      3.9467877      40000                100 
     24900   1534.6326      3.1363836      2278.9294      2282.0657      3.8772731      40000                100 
     25000   1504.3912      3.6832611      2234.0209      2237.7042      3.8088131      40000                100 
     25100   1472.2695      4.3493416      2186.3202      2190.6696      3.7369785      40000                100 
     25200   1440.8591      5.1690872      2139.6758      2144.8449      3.668512       40000                100 
     25300   1410.4615      6.1565451      2094.5353      2100.6918      3.6042919      40000                100 
     25400   1380.8243      7.2371027      2050.5241      2057.7612      3.5428917      40000                100 
     25500   1350.2825      8.189743       2005.1695      2013.3592      3.4779394      40000                100 
     25600   1324.1397      8.7350598      1966.3475      1975.0825      3.4196971      40000                100 
     25700   1299.4315      8.7739055      1929.6558      1938.4297      3.3598413      40000                100 
     25800   1273.3441      8.5091268      1890.9161      1899.4252      3.2934933      40000                100 
     25900   1248.0566      8.4115925      1853.3641      1861.7757      3.2308697      40000                100 
     26000   1225.2322      8.8228323      1819.4699      1828.2927      3.1795905      40000                100 
     26100   1199.5312      9.9205726      1781.3038      1791.2243      3.1282527      40000                100 
     26200   1175.668       11.625576      1745.867       1757.4926      3.0876664      40000                100 
     26300   1151.6109      13.458423      1710.1422      1723.6006      3.0478767      40000                100 
     26400   1125.763       14.634969      1671.7581      1686.3931      2.9968882      40000                100 
     26500   1100.5256      14.658182      1634.2806      1648.9388      2.9355654      40000                100 
     26600   1082.2227      13.518252      1607.1008      1620.619       2.8794505      40000                100 
     26700   1061.1887      11.845301      1575.8652      1587.7105      2.8110791      40000                100 
     26800   1042.252       10.255391      1547.7442      1557.9996      2.7487318      40000                100 
     26900   1022.7647      9.1292482      1518.8055      1527.9348      2.6898243      40000                100 
     27000   1003.4657      8.6182734      1490.1466      1498.7649      2.6377814      40000                100 
     27100   982.19439      8.7503861      1458.5587      1467.3091      2.5875764      40000                100 
     27200   960.96521      9.56534        1427.0333      1436.5987      2.5445972      40000                100 
     27300   941.95107      11.164294      1398.7973      1409.9616      2.5152426      40000                100 
     27400   924.75923      13.548525      1373.2675      1386.816       2.4984922      40000                100 
     27500   906.74865      16.031955      1346.5217      1362.5537      2.4807529      40000                100 
     27600   889.00101      17.232943      1320.1665      1337.3994      2.450652       40000                100 
     27700   871.81501      16.934477      1294.6453      1311.5798      2.4067114      40000                100 
     27800   853.4993       16.676369      1267.4465      1284.1228      2.3603493      40000                100 
     27900   835.30938      17.413597      1240.4344      1257.848       2.3244202      40000                100 
     28000   819.71798      19.089741      1217.2812      1236.3709      2.3044821      40000                100 
     28100   803.54433      21.247142      1193.2633      1214.5105      2.2879811      40000                100 
     28200   785.516        23.133668      1166.4913      1189.6249      2.264047       40000                100 
     28300   770.54956      24.155226      1144.2661      1168.4213      2.2387525      40000                100 
     28400   754.89889      24.470642      1121.0249      1145.4955      2.2044373      40000                100 
     28500   738.15435      24.508991      1096.1592      1120.6682      2.1644481      40000                100 
     28600   722.38471      24.322407      1072.7413      1097.0637      2.1244398      40000                100 
     28700   709.80619      23.747753      1054.0622      1077.8099      2.0882993      40000                100 
     28800   696.33399      22.874089      1034.056       1056.9301      2.0468373      40000                100 
     28900   685.07382      22.127096      1017.3346      1039.4617      2.0121035      40000                100 
     29000   672.90983      21.54288       999.2711       1020.814       1.9768086      40000                100 
     29100   661.32176      20.980003      982.06281      1003.0428      1.9432499      40000                100 
     29200   648.24062      20.506946      962.63733      983.14427      1.9070686      40000                100 
     29300   635.16355      20.598127      943.21788      963.81601      1.8768537      40000                100 
     29400   621.93555      21.756904      923.57429      945.3312       1.8573751      40000                100 
     29500   607.85737      24.109646      902.66819      926.77784      1.848127       40000                100 
     29600   593.42864      27.139971      881.24153      908.3815       1.8450286      40000                100 
     29700   579.34144      29.784421      860.32203      890.10645      1.8388394      40000                100 
     29800   567.27499      30.846551      842.40336      873.24991      1.8214833      40000                100 
     29900   556.6883       30.048135      826.68212      856.73025      1.7887822      40000                100 
     30000   546.80848      28.307517      812.0106       840.31811      1.7482163      40000                100 
     30100   537.30772      26.91335       797.90196      824.81531      1.7121811      40000                100 
     30200   526.55961      26.535856      781.94102      808.47687      1.6836009      40000                100 
     30300   515.03871      27.518782      764.83248      792.35127      1.6672667      40000                100 
     30400   503.47573      30.096444      747.66146      777.7579       1.6673221      40000                100 
     30500   491.53214      34.376244      729.92522      764.30147      1.683967       40000                100 
     30600   477.48366      39.366483      709.06324      748.42972      1.7026487      40000                100 
     30700   468.0166       42.754104      695.00465      737.75875      1.7162816      40000                100 
     30800   458.78942      43.115529      681.30229      724.41782      1.6995923      40000                100 
     30900   451.38893      41.695072      670.31256      712.00763      1.6692117      40000                100 
     31000   442.82442      40.799685      657.59426      698.39394      1.6413233      40000                100 
     31100   434.26991      41.648649      644.89081      686.53946      1.6314233      40000                100 
     31200   422.7822       44.548643      627.83157      672.38021      1.6354128      40000                100 
     31300   410.7048       48.808829      609.89663      658.70546      1.6520883      40000                100 
     31400   397.98614      54.378757      591.00942      645.38818      1.6807155      40000                100 
     31500   385.01562      62.790984      571.7482       634.53918      1.7375233      40000                100 
     31600   372.1705       70.224139      552.67319      622.89733      1.7844361      40000                100 
     31700   363.92361      69.891617      540.42657      610.31818      1.7637978      40000                100 
     31800   358.18733      68.03342       531.90818      599.9416       1.7336458      40000                100 
     31900   350.12875      68.85717       519.94119      588.79836      1.7249892      40000                100 
     32000   340.65053      72.204344      505.86604      578.07039      1.7387145      40000                100 
     32100   330.36779      77.928518      490.59616      568.52468      1.7748676      40000                100 
     32200   318.09146      84.829652      472.36582      557.19547      1.818162       40000                100 
     32300   308.50705      89.879447      458.13297      548.01241      1.8493886      40000                100 
     32400   301.20401      92.39648       447.28796      539.68444      1.8605355      40000                100 
     32500   292.83792      96.129691      434.86431      530.994        1.8811804      40000                100 
     32600   282.47603      102.67169      419.4769       522.14859      1.9251344      40000                100 
     32700   272.89941      109.93603      405.25562      515.19166      1.977987       40000                100 
     32800   265.59739      113.4691       394.41212      507.88122      1.9981988      40000                100 
     32900   264.0535       109.06521      392.11945      501.18466      1.9520069      40000                100 
     33000   264.46029      100.99567      392.72353      493.7192       1.8734659      40000                100 
     33100   259.42694      98.706291      385.24901      483.9553       1.840266       40000                100 
     33200   250.17684      104.48027      371.5126       475.99287      1.8787599      40000                100 
     33300   239.02359      113.38613      354.95004      468.33617      1.9447388      40000                100 
     33400   226.88954      124.89683      336.93097      461.8278       2.0346844      40000                100 
     33500   217.71495      132.60103      323.3067       455.90772      2.0930926      40000                100 
     33600   214.31935      132.526        318.26423      450.79023      2.086519       40000                100 
     33700   214.78135      125.65067      318.9503       444.60097      2.0202878      40000                100 
     33800   214.40674      119.89048      318.394        438.28448      1.9632667      40000                100 
     33900   210.40043      120.77185      312.44463      433.21649      1.9648378      40000                100 
     34000   202.66593      126.72817      300.95891      427.68708      2.0088965      40000                100 
     34100   194.13295      133.62742      288.28742      421.91484      2.0605064      40000                100 
     34200   188.30256      137.41765      279.62929      417.04695      2.0869573      40000                100 
     34300   184.60702      137.83684      274.14143      411.97828      2.0843104      40000                100 
     34400   179.33163      140.82432      266.30747      407.1318       2.1037692      40000                100 
     34500   169.85743      150.16187      252.23828      402.40015      2.1771875      40000                100 
     34600   162.21557      157.58753      240.89012      398.47765      2.2356961      40000                100 
     34700   158.87668      157.80645      235.93188      393.73832      2.2316181      40000                100 
     34800   156.95829      155.50823      233.08306      388.59129      2.2053612      40000                100 
     34900   153.55679      156.24483      228.03183      384.27666      2.2061385      40000                100 
     35000   148.76403      159.29518      220.91459      380.20977      2.2268316      40000                100 
     35100   145.6689       160.98512      216.31832      377.30345      2.2376989      40000                100 
     35200   142.65052      161.16619      211.83602      373.00221      2.233114       40000                100 
     35300   139.80564      161.16072      207.61137      368.77209      2.2264135      40000                100 
     35400   140.89592      156.10987      209.23044      365.34031      2.1776393      40000                100 
     35500   144.16791      146.81507      214.08935      360.90442      2.0905753      40000                100 
     35600   146.14591      140.00329      217.02668      357.02997      2.0249054      40000                100 
     35700   146.53971      135.17         217.61147      352.78147      1.9751444      40000                100 
     35800   147.58089      128.86392      219.15762      348.02154      1.9121197      40000                100 
     35900   148.08918      123.81895      219.91243      343.73138      1.8607786      40000                100 
     36000   145.19583      123.37795      215.6158       338.99375      1.847985       40000                100 
     36100   138.79291      127.80542      206.10747      333.91288      1.8760193      40000                100 
     36200   133.62192      131.63549      198.42855      330.06403      1.9008623      40000                100 
     36300   132.31167      128.94893      196.48283      325.43177      1.8687707      40000                100 
     36400   135.0307       121.21518      200.52058      321.73577      1.7949607      40000                100 
     36500   139.17489      111.56451      206.67471      318.23921      1.7049665      40000                100 
     36600   141.90122      103.36955      210.7233       314.09286      1.6263223      40000                100 
     36700   143.25219      98.341172      212.72951      311.07068      1.5768167      40000                100 
     36800   141.16854      97.345397      209.63529      306.98068      1.5602583      40000                100 
     36900   137.07917      100.4033       203.56257      303.96587      1.5802369      40000                100 
     37000   132.88395      103.82507      197.33267      301.15774      1.6038247      40000                100 
     37100   131.13127      103.82705      194.72994      298.55699      1.5987751      40000                100 
     37200   128.68938      103.42134      191.10374      294.52508      1.587716       40000                100 
     37300   125.47046      104.35551      186.32363      290.67914      1.5880556      40000                100 
     37400   122.48407      104.74998      181.88885      286.63883      1.5832134      40000                100 
     37500   121.44099      102.41399      180.33987      282.75386      1.5551356      40000                100 
     37600   121.3001       97.55281       180.13065      277.68346      1.5034065      40000                100 
     37700   122.29822      92.708294      181.61286      274.32116      1.4544425      40000                100 
     37800   121.17593      89.991508      179.94626      269.93776      1.4217324      40000                100 
     37900   119.41134      89.086559      177.32583      266.41239      1.4057912      40000                100 
     38000   119.40154      87.564547      177.31128      264.87583      1.387937       40000                100 
     38100   119.2453       84.771095      177.07928      261.85037      1.3568025      40000                100 
     38200   118.98956      82.078599      176.6995       258.7781       1.3263508      40000                100 
     38300   118.98707      79.208507      176.6958       255.9043       1.2946107      40000                100 
     38400   119.98496      75.007563      178.17767      253.18524      1.2517321      40000                100 
     38500   120.96097      69.711908      179.62705      249.33896      1.197559       40000                100 
     38600   122.5077       64.862134      181.92393      246.78607      1.1492372      40000                100 
     38700   121.892        61.46927       181.00962      242.47889      1.1103621      40000                100 
     38800   120.95405      59.21348       179.61676      238.83024      1.082318       40000                100 
     38900   119.86132      57.34977       177.99406      235.34383      1.057954       40000                100 
     39000   119.19963      55.772182      177.01145      232.78363      1.0376409      40000                100 
     39100   118.45136      54.364506      175.90027      230.26478      1.0188359      40000                100 
     39200   117.43372      52.876801      174.38908      227.26588      0.99850898     40000                100 
     39300   116.35757      50.856566      172.79099      223.64756      0.97251034     40000                100 
     39400   116.29584      47.950606      172.69932      220.64993      0.93991233     40000                100 
     39500   116.39835      44.160652      172.85155      217.01221      0.89861678     40000                100 
     39600   117.5634       39.929381      174.58164      214.51103      0.85543112     40000                100 
     39700   117.89955      35.866368      175.08082      210.94719      0.81192489     40000                100 
     39800   117.80929      32.346424      174.94679      207.29322      0.7730249      40000                100 
     39900   117.1535       29.568496      173.97295      203.54144      0.74045921     40000                100 
     40000   116.01164      27.613808      172.27728      199.89109      0.71530068     40000                100 
     40100   114.87137      26.424188      170.58399      197.00817      0.69816825     40000                100 
     40200   113.06074      25.891532      167.8952       193.78673      0.68629408     40000                100 
     40300   111.84996      25.793395      166.0972       191.89059      0.68052033     40000                100 
     40400   109.39769      25.85275       162.45558      188.30833      0.67344071     40000                100 
     40500   107.31815      25.884783      159.36746      185.25224      0.66713635     40000                100 
     40600   104.97288      25.774377      155.88472      181.6591       0.65882019     40000                100 
     40700   103.43926      25.570532      153.6073       179.17783      0.65162471     40000                100 
     40800   101.45026      25.230226      150.65363      175.88386      0.64193805     40000                100 
     40900   99.724263      24.735167      148.09053      172.8257       0.63130675     40000                100 
     41000   98.149089      24.115029      145.7514       169.86643      0.61977065     40000                100 
     41100   97.175858      23.344504      144.30615      167.65065      0.60816557     40000                100 
     41200   95.947236      22.408894      142.48165      164.89054      0.59421986     40000                100 
     41300   95.344901      21.375418      141.58718      162.9626       0.58077732     40000                100 
     41400   94.24376       20.382524      139.95198      160.33451      0.56649863     40000                100 
     41500   93.115871      19.45732       138.27707      157.73439      0.55281129     40000                100 
     41600   91.888896      18.572364      136.45501      155.02737      0.53925391     40000                100 
     41700   90.341848      17.680081      134.15764      151.83773      0.52483396     40000                100 
     41800   89.150361      16.763548      132.38829      149.15183      0.51104041     40000                100 
     41900   87.992059      15.781379      130.66821      146.44959      0.49664486     40000                100 
     42000   86.976151      14.740493      129.15958      143.90008      0.48200446     40000                100 
     42100   86.250783      13.688543      128.08241      141.77096      0.46797784     40000                100 
     42200   85.274703      12.65803       126.63293      139.29096      0.45356626     40000                100 
     42300   83.876587      11.697298      124.55673      136.25403      0.43884509     40000                100 
     42400   83.282107      10.825627      123.67393      134.49956      0.42704873     40000                100 
     42500   82.236496      10.066849      122.1212       132.18805      0.41533887     40000                100 
     42600   81.533197      9.4282413      121.0768       130.50504      0.40573362     40000                100 
     42700   79.825121      8.9012284      118.54031      127.44153      0.39483618     40000                100 
     42800   78.994385      8.4798137      117.30666      125.78647      0.3872223      40000                100 
     42900   77.794461      8.156843       115.52477      123.68162      0.37971842     40000                100 
     43000   76.427412      7.924588       113.49471      121.41929      0.37275876     40000                100 
     43100   74.933563      7.7209585      111.27634      118.9973       0.36582022     40000                100 
     43200   73.735779      7.4710076      109.49763      116.96864      0.35916513     40000                100 
     43300   72.616416      7.1285099      107.83538      114.96389      0.35177735     40000                100 
     43400   71.32018       6.6929817      105.91047      112.60345      0.34301261     40000                100 
     43500   69.943908      6.2085081      103.8667       110.07521      0.33357623     40000                100 
     43600   69.723108      5.7373314      103.53881      109.27615      0.32715792     40000                100 
     43700   68.707574      5.3055706      102.03075      107.33632      0.31919338     40000                100 
     43800   67.51          4.9262343      100.25235      105.17858      0.31133578     40000                100 
     43900   66.143902      4.5967553      98.223694      102.82045      0.30359904     40000                100 
     44000   64.791222      4.2924789      96.214965      100.50744      0.29618998     40000                100 
     44100   63.984637      4.0176819      95.017185      99.034867      0.29045771     40000                100 
     44200   63.212811      3.7683997      93.871025      97.639424      0.28510287     40000                100 
     44300   62.098419      3.5388856      92.216153      95.755039      0.27912788     40000                100 
     44400   61.52165       3.3181381      91.35965       94.677788      0.27458628     40000                100 
     44500   60.444167      3.1018768      89.759588      92.861464      0.26888048     40000                100 
     44600   59.472347      2.8875428      88.316436      91.203978      0.26346492     40000                100 
     44700   58.219033      2.6653347      86.455265      89.120599      0.2572882      40000                100 
     44800   57.404932      2.4251134      85.246325      87.671438      0.25201909     40000                100 
     44900   56.576151      2.1771693      84.015584      86.192753      0.24663558     40000                100 
     45000   56.42902       1.917906       83.797095      85.715001      0.24283241     40000                100 
     45100   55.802663      1.6480695      82.866955      84.515025      0.23774181     40000                100 
     45200   55.247725      1.3823427      82.042871      83.425214      0.23287574     40000                100 
     45300   54.013182      1.1162511      80.209575      81.325826      0.22633657     40000                100 
     45400   53.141713      0.85907971     78.915443      79.774523      0.22079405     40000                100 
     45500   52.116465      0.60695408     77.39295       77.999904      0.21492896     40000                100 
     45600   51.147275      0.37824454     75.953703      76.331948      0.20947337     40000                100 
     45700   50.530288      0.17415025     75.037478      75.211628      0.2051659      40000                100 
     45800   49.429981     -0.0071740868   73.403522      73.396348      0.19991027     40000                100 
     45900   49.046507     -0.16712818     72.834064      72.666935      0.1966775      40000                100 
     46000   47.990536     -0.30809693     71.265946      70.957849      0.19199865     40000                100 
     46100   47.292737     -0.43089968     70.229714      69.798814      0.18839963     40000                100 
     46200   46.727414     -0.54494798     69.39021       68.845262      0.18523876     40000                100 
     46300   45.934478     -0.64826179     68.2127        67.564438      0.18164459     40000                100 
     46400   45.143945     -0.73852562     67.038758      66.300233      0.17821274     40000                100 
     46500   44.259075     -0.81294767     65.724727      64.911779      0.17473383     40000                100 
     46600   43.512822     -0.87663231     64.61654       63.739908      0.17171884     40000                100 
     46700   42.595171     -0.91878029     63.253829      62.335049      0.16852639     40000                100 
     46800   41.817513     -0.94415445     62.099007      61.154853      0.16587135     40000                100 
     46900   41.261334     -0.95984187     61.273081      60.313239      0.16387088     40000                100 
     47000   40.668081     -0.97287638     60.392101      59.419225      0.16181928     40000                100 
     47100   39.493724     -0.97731275     58.648181      57.670868      0.15843066     40000                100 
     47200   39.067829     -0.97754689     58.015726      57.038179      0.15693238     40000                100 
     47300   38.119791     -0.9808557      56.607889      55.627034      0.1541259      40000                100 
     47400   37.462197     -0.98491479     55.631362      54.646447      0.15203411     40000                100 
     47500   36.753991     -0.99441077     54.579676      53.585265      0.1497707      40000                100 
     47600   36.240933     -1.0132817      53.817786      52.804504      0.14789929     40000                100 
     47700   35.380711     -1.0452547      52.540356      51.495101      0.14503377     40000                100 
     47800   34.957067     -1.0946535      51.911245      50.816591      0.14306793     40000                100 
     47900   34.251256     -1.1524349      50.863115      49.71068       0.14032239     40000                100 
     48000   33.807861     -1.2238702      50.204673      48.980803      0.13808691     40000                100 
     48100   33.149318     -1.3052244      49.226737      47.921512      0.13521023     40000                100 
     48200   32.450391     -1.3860354      48.18883       46.802795      0.13225207     40000                100 
     48300   31.91583      -1.4728434      47.395007      45.922164      0.12963885     40000                100 
     48400   31.563371     -1.5584483      46.871605      45.313157      0.12748449     40000                100 
     48500   31.186083     -1.6426736      46.311334      44.66866       0.12528491     40000                100 
     48600   30.925179     -1.7163555      45.923891      44.207536      0.12350096     40000                100 
     48700   30.330515     -1.7862911      45.040815      43.254523      0.12093672     40000                100 
     48800   30.101198     -1.8492425      44.700279      42.851036      0.11935875     40000                100 
     48900   29.735766     -1.9070058      44.157612      42.250607      0.11750217     40000                100 
     49000   29.259493     -1.9595819      43.450347      41.490765      0.11543019     40000                100 
     49100   28.824882     -2.0071651      42.804949      40.797784      0.11352212     40000                100 
     49200   28.244113     -2.0500329      41.942508      39.892475      0.11131125     40000                100 
     49300   27.541934     -2.0881288      40.899773      38.811644      0.10886952     40000                100 
     49400   27.187875     -2.119478       40.373994      38.254516      0.10736199     40000                100 
     49500   26.642779     -2.1430434      39.564527      37.421484      0.10547889     40000                100 
     49600   26.246483     -2.1570389      38.976028      36.818989      0.10407084     40000                100 
     49700   26.004462     -2.1647973      38.616626      36.451828      0.10311264     40000                100 
     49800   25.761778     -2.1682537      38.256241      36.087987      0.10221493     40000                100 
     49900   25.322171     -2.1625938      37.603423      35.44083       0.10093489     40000                100 
     50000   25.21748      -2.1483509      37.447958      35.299607      0.1005996      40000                100 
     50100   24.916632     -2.1248546      37.001199      34.876344      0.099872005    40000                100 
     50200   24.591184     -2.0987791      36.517909      34.41913       0.09912271     40000                100 
     50300   24.145981     -2.0674875      35.856782      33.789295      0.098136712    40000                100 
     50400   23.846283     -2.0312872      35.41173       33.380443      0.097573878    40000                100 
     50500   23.802747     -1.99526        35.347079      33.351819      0.097647396    40000                100 
     50600   23.248604     -1.957348       34.524177      32.566829      0.096477157    40000                100 
     50700   22.78861      -1.9230318      33.841086      31.918054      0.095509299    40000                100 
     50800   22.168081     -1.8930142      32.9196        31.026586      0.094104187    40000                100 
     50900   21.732818     -1.8676838      32.273235      30.405551      0.093106596    40000                100 
     51000   21.436069     -1.8509099      31.832562      29.981652      0.092361707    40000                100 
     51100   21.209248     -1.8424429      31.495733      29.65329       0.091704674    40000                100 
     51200   20.539356     -1.8422692      30.500944      28.658675      0.089863593    40000                100 
     51300   20.231587     -1.8504449      30.043907      28.193463      0.088831761    40000                100 
     51400   19.972061     -1.864762       29.658511      27.793749      0.087865922    40000                100 
     51500   19.480311     -1.8862502      28.928261      27.042011      0.086252187    40000                100 
     51600   19.285044     -1.9136293      28.63829       26.724661      0.085307833    40000                100 
     51700   19.056457     -1.9456094      28.298839      26.35323       0.084230872    40000                100 
     51800   18.62773      -1.9833575      27.662179      25.678821      0.08258479     40000                100 
     51900   18.496255     -2.0210228      27.466939      25.445916      0.081677203    40000                100 
     52000   18.25442      -2.0563018      27.107814      25.051512      0.080527311    40000                100 
     52100   18.157259     -2.0897119      26.96353       24.873818      0.079761427    40000                100 
     52200   17.828911     -2.1182169      26.475933      24.357716      0.078486863    40000                100 
     52300   17.719865     -2.1437334      26.313999      24.170265      0.077782911    40000                100 
     52400   17.258666     -2.1697649      25.629119      23.459354      0.076210825    40000                100 
     52500   17.101824     -2.1921967      25.396208      23.204011      0.075426183    40000                100 
     52600   16.793368     -2.2115418      24.938151      22.72661       0.074299484    40000                100 
     52700   16.702481     -2.2274697      24.803184      22.575714      0.073752611    40000                100 
     52800   16.592275     -2.2413401      24.639529      22.398189      0.073186863    40000                100 
     52900   16.649814     -2.2486264      24.724974      22.476348      0.073116136    40000                100 
     53000   16.395017     -2.2516024      24.3466        22.094997      0.072326625    40000                100 
     53100   16.099881     -2.2533956      23.908323      21.654927      0.071460712    40000                100 
     53200   16.060974     -2.2527476      23.850546      21.597798      0.071261466    40000                100 
     53300   15.78671      -2.2500486      23.443264      21.193215      0.070508737    40000                100 
     53400   15.421214     -2.248261       22.900502      20.652241      0.069522563    40000                100 
     53500   15.297787     -2.2469978      22.717213      20.470215      0.069126604    40000                100 
     53600   15.088484     -2.2466022      22.406399      20.159797      0.068508586    40000                100 
     53700   14.741253     -2.2476121      21.89076       19.643148      0.067546133    40000                100 
     53800   14.454486     -2.2473128      21.464912      19.217599      0.066743776    40000                100 
     53900   14.581946     -2.2482686      21.65419       19.405921      0.066950618    40000                100 
     54000   14.638666     -2.2507865      21.738419      19.487632      0.066958106    40000                100 
     54100   14.364646     -2.2558337      21.331499      19.075665      0.066120663    40000                100 
     54200   14.280219     -2.2600516      21.206125      18.946074      0.065768851    40000                100 
     54300   14.001572     -2.2651147      20.792334      18.52722       0.06492514     40000                100 
     54400   13.677673     -2.2673483      20.311345      18.043997      0.06400051     40000                100 
     54500   13.480921     -2.2681626      20.019167      17.751005      0.063411908    40000                100 
     54600   13.388671     -2.2706143      19.882176      17.611562      0.06306267     40000                100 
     54700   13.275486     -2.2723133      19.714096      17.441783      0.062661594    40000                100 
     54800   13.073905     -2.2733168      19.414749      17.141432      0.062061745    40000                100 
     54900   12.758214     -2.2724129      18.945947      16.673534      0.061204058    40000                100 
     55000   12.659608     -2.2724674      18.799518      16.52705       0.060878365    40000                100 
     55100   12.388187     -2.2737153      18.396457      16.122742      0.060114053    40000                100 
     55200   12.441448     -2.2747302      18.475551      16.200821      0.060155539    40000                100 
     55300   12.278826     -2.2769217      18.234057      15.957135      0.059662303    40000                100 
     55400   12.235133     -2.2813233      18.169172      15.887849      0.059427326    40000                100 
     55500   12.225878     -2.2880991      18.155428      15.867329      0.059250497    40000                100 
     55600   11.847215     -2.2948191      17.593114      15.298295      0.058157315    40000                100 
     55700   11.742714     -2.3017763      17.437931      15.136155      0.057737429    40000                100 
     55800   11.577893     -2.3095573      17.193171      14.883614      0.057162559    40000                100 
     55900   11.33783      -2.3197822      16.836678      14.516895      0.056378063    40000                100 
     56000   11.460256     -2.3295049      17.01848       14.688975      0.056492535    40000                100 
     56100   11.314401     -2.3403769      16.801886      14.461509      0.055933685    40000                100 
     56200   11.267061     -2.3515639      16.731586      14.380022      0.055613279    40000                100 
     56300   11.208192     -2.3647208      16.644166      14.279445      0.055246916    40000                100 
     56400   11.222432     -2.3768042      16.665311      14.288507      0.055072255    40000                100 
     56500   11.186951     -2.3844893      16.612622      14.228132      0.054827677    40000                100 
     56600   11.08952      -2.3903811      16.467937      14.077556      0.054455401    40000                100 
     56700   10.80751      -2.396898       16.049152      13.652254      0.053619118    40000                100 
     56800   10.599312     -2.4034733      15.739978      13.336504      0.05296636     40000                100 
     56900   10.522157     -2.4087762      15.625403      13.216627      0.052656209    40000                100 
     57000   10.389531     -2.4119146      15.428454      13.016539      0.052232601    40000                100 
     57100   10.396425     -2.4128764      15.438691      13.025814      0.052178993    40000                100 
     57200   10.29807      -2.4107565      15.292634      12.881878      0.051903008    40000                100 
     57300   10.093894     -2.4082688      14.989433      12.581164      0.051367336    40000                100 
     57400   10.0276       -2.4038411      14.890986      12.487145      0.051203362    40000                100 
     57500   9.9731744     -2.3975444      14.810164      12.41262       0.051085346    40000                100 
     57600   10.086029     -2.3887254      14.977753      12.589028      0.051407372    40000                100 
     57700   9.9128303     -2.3765632      14.720553      12.34399       0.051062738    40000                100 
     57800   9.9128648     -2.3629111      14.720604      12.357693      0.051159652    40000                100 
     57900   9.8963436     -2.3463854      14.69607       12.349685      0.0512498      40000                100 
     58000   9.7586923     -2.3310615      14.491658      12.160597      0.051031362    40000                100 
     58100   9.5933578     -2.3150707      14.246136      11.931066      0.050751758    40000                100 
     58200   9.5914758     -2.2992457      14.243342      11.944096      0.050878052    40000                100 
     58300   9.4748693     -2.2837072      14.070181      11.786474      0.050708406    40000                100 
     58400   9.5940285     -2.2721994      14.247132      11.974933      0.051076487    40000                100 
     58500   9.6381245     -2.2620953      14.312615      12.05052       0.051243227    40000                100 
     58600   9.4399516     -2.2597471      14.018328      11.758581      0.050731263    40000                100 
     58700   9.3392429     -2.257946       13.868776      11.61083       0.050456554    40000                100 
     58800   9.3864431     -2.2532432      13.938868      11.685625      0.050579534    40000                100 
     58900   9.1522215     -2.2495527      13.591049      11.341496      0.049998859    40000                100 
     59000   9.0880322     -2.2454567      13.495728      11.250271      0.049848238    40000                100 
     59100   8.971674      -2.2399842      13.322936      11.082952      0.049578366    40000                100 
     59200   8.8392388     -2.2348096      13.12627       10.89146       0.049269309    40000                100 
     59300   8.7884245     -2.2274473      13.05081       10.823363      0.049189674    40000                100 
     59400   8.6996216     -2.2198076      12.918938      10.69913       0.04901537     40000                100 
     59500   8.5521912     -2.2132949      12.700004      10.486709      0.048690495    40000                100 
     59600   8.619463      -2.2060139      12.799903      10.593889      0.048900653    40000                100 
     59700   8.7689195     -2.1978727      13.021845      10.823973      0.049322608    40000                100 
     59800   8.6038085     -2.1887615      12.776656      10.587894      0.048978137    40000                100 
     59900   8.6074385     -2.1781807      12.782046      10.603866      0.049066169    40000                100 
     60000   8.6246726     -2.166587       12.807639      10.641052      0.049197946    40000                100 
     60100   8.6605457     -2.157847       12.86091       10.703063      0.049346127    40000                100 
     60200   8.5480687     -2.1497001      12.693882      10.544182      0.049116472    40000                100 
     60300   8.439735      -2.1418076      12.533006      10.391199      0.048887099    40000                100 
     60400   8.4424454     -2.1333669      12.537031      10.403664      0.048941764    40000                100 
     60500   8.3165946     -2.1255987      12.350143      10.224544      0.04866575     40000                100 
     60600   8.2866379     -2.1201606      12.305657      10.185497      0.048605337    40000                100 
     60700   8.3117893     -2.1159033      12.343007      10.227104      0.048667483    40000                100 
     60800   8.3268185     -2.1118811      12.365325      10.253444      0.048705176    40000                100 
     60900   8.4824566     -2.104738       12.596448      10.49171       0.04912795     40000                100 
     61000   8.3730755     -2.0997864      12.434017      10.334231      0.04886623     40000                100 
     61100   8.3597289     -2.0971464      12.414197      10.317051      0.048817808    40000                100 
     61200   8.2148406     -2.0932404      12.199038      10.105798      0.048450267    40000                100 
     61300   8.1879237     -2.0869428      12.159067      10.072124      0.048408669    40000                100 
     61400   8.1946107     -2.0794457      12.168997      10.089551      0.048463659    40000                100 
     61500   8.0140208     -2.071953       11.900821      9.8288679      0.048056757    40000                100 
     61600   7.8381561     -2.064881       11.639662      9.5747809      0.047651218    40000                100 
     61700   7.797097      -2.0579749      11.578689      9.5207142      0.047578152    40000                100 
     61800   7.8801212     -2.0497528      11.70198       9.6522272      0.047816776    40000                100 
     61900   7.955637      -2.0428492      11.814121      9.7712717      0.048019204    40000                100 
     62000   7.6903529     -2.0377645      11.420174      9.3824095      0.047361804    40000                100 
     62100   7.6353569     -2.0330532      11.338505      9.3054518      0.04721417     40000                100 
     62200   7.4833098     -2.027979       11.112715      9.0847361      0.0468341      40000                100 
     62300   7.4927823     -2.0254646      11.126782      9.1013172      0.046826919    40000                100 
     62400   7.4129074     -2.0236748      11.008168      8.9844928      0.046584971    40000                100 
     62500   7.5575456     -2.0222289      11.222955      9.2007263      0.046896796    40000                100 
     62600   7.5387418     -2.0245714      11.195032      9.1704601      0.046760177    40000                100 
     62700   7.7086613     -2.0283326      11.447362      9.4190294      0.04706735     40000                100 
     62800   7.7247926     -2.0330845      11.471317      9.4382325      0.046979226    40000                100 
     62900   7.6946278     -2.0385805      11.426522      9.3879417      0.046773912    40000                100 
     63000   7.6272795     -2.0437015      11.32651       9.2828085      0.046477852    40000                100 
     63100   7.5006152     -2.0507871      11.138414      9.0876266      0.04601875     40000                100 
     63200   7.445317      -2.0563536      11.056296      8.9999422      0.045750644    40000                100 
     63300   7.3237366     -2.0630319      10.875749      8.8127169      0.045304486    40000                100 
     63400   7.2961807     -2.0705789      10.834828      8.7642495      0.045081179    40000                100 
     63500   7.4582313     -2.0796987      11.075473      8.9957747      0.045314711    40000                100 
     63600   7.6391063     -2.0897815      11.344073      9.2542914      0.045577707    40000                100 
     63700   7.5589416     -2.1012258      11.225028      9.1238025      0.045180825    40000                100 
     63800   7.5098615     -2.1145476      11.152144      9.0375967      0.044835872    40000                100 
     63900   7.3195938     -2.1278385      10.869597      8.7417583      0.044136121    40000                100 
     64000   7.2364906     -2.1415319      10.746188      8.6046566      0.043703855    40000                100 
     64100   7.346449      -2.1524081      10.909477      8.7570686      0.043780501    40000                100 
     64200   7.3692386     -2.1592805      10.943319      8.7840387      0.043687669    40000                100 
[...]
    233600   4.7580322     -1.6423206      7.0656779      5.4233573      0.036915259    40000                100 
    233700   4.6872768     -1.6520925      6.9606061      5.3085136      0.036640315    40000                100 
    233800   4.8247912     -1.6604321      7.164815       5.5043829      0.036893087    40000                100 
    233900   4.772325      -1.6679673      7.0869026      5.4189354      0.036686542    40000                100 
    234000   4.9051187     -1.6725114      7.2841013      5.6115899      0.036974083    40000                100 
    234100   4.8412767     -1.6768459      7.1892959      5.51245        0.03677397     40000                100 
    234200   4.9818689     -1.678829       7.3980754      5.7192464      0.037107738    40000                100 
    234300   4.8609229     -1.6817248      7.2184706      5.5367458      0.036783354    40000                100 
    234400   4.9767274     -1.6838631      7.3904403      5.7065772      0.037057704    40000                100 
    234500   5.0294706     -1.6838282      7.4687639      5.7849357      0.037197604    40000                100 
    234600   5.0415755     -1.6848512      7.4867397      5.8018885      0.037226276    40000                100 
    234700   5.1057738     -1.6857428      7.5820741      5.8963314      0.037389366    40000                100 
    234800   5.0366692     -1.6857239      7.4794537      5.7937298      0.037231874    40000                100 
    234900   5.0089873     -1.6856182      7.4383462      5.752728       0.037176963    40000                100 
    235000   4.9318732     -1.6848906      7.3238318      5.6389412      0.037012387    40000                100 
    235100   4.9116651     -1.6837513      7.2938226      5.6100713      0.036991051    40000                100 
    235200   4.8128779     -1.6854355      7.1471237      5.4616883      0.036746652    40000                100 
    235300   4.7852304     -1.6887761      7.1060671      5.417291       0.036659464    40000                100 
    235400   4.7462286     -1.6914275      7.0481495      5.356722       0.036554996    40000                100 
    235500   4.8912268     -1.691241       7.2634718      5.5722308      0.036939619    40000                100 
    235600   4.8851372     -1.6924544      7.2544288      5.5619744      0.036933491    40000                100 
    235700   4.9368084     -1.6948313      7.3311605      5.6363291      0.037054969    40000                100 
    235800   5.0088478     -1.6960994      7.438139       5.7420396      0.037248916    40000                100 
    235900   5.13558       -1.6963052      7.6263363      5.9300311      0.037586234    40000                100 
    236000   5.1216964     -1.6935621      7.6057191      5.912157       0.037605575    40000                100 
    236100   5.0231045     -1.6904475      7.4593102      5.7688627      0.037421816    40000                100 
    236200   5.0607046     -1.6869582      7.5151463      5.8281881      0.03758031     40000                100 
    236300   4.9376834     -1.6829534      7.3324598      5.6495064      0.037342315    40000                100 
    236400   4.9690922     -1.6793057      7.3791019      5.6997962      0.037477873    40000                100 
    236500   5.052178      -1.6741282      7.5024843      5.8283561      0.037752127    40000                100 
    236600   4.9853735     -1.6675369      7.4032796      5.7357426      0.037670223    40000                100 
    236700   4.8682834     -1.6621792      7.2294008      5.5672216      0.037449041    40000                100 
    236800   4.8309327     -1.6559055      7.173935       5.5180295      0.037433158    40000                100 
    236900   4.8838823     -1.6504811      7.2525652      5.6020841      0.037633726    40000                100 
    237000   4.8543735     -1.6463903      7.2087446      5.5623543      0.037610845    40000                100 
    237100   4.8314453     -1.6402085      7.1746963      5.5344878      0.037632722    40000                100 
    237200   4.6957474     -1.6327483      6.9731848      5.3404366      0.037385947    40000                100 
    237300   4.6494988     -1.6264582      6.9045058      5.2780476      0.037343225    40000                100 
    237400   4.6359292     -1.6200105      6.8843549      5.2643444      0.037386581    40000                100 
    237500   4.7039975     -1.6143877      6.9854363      5.3710486      0.037623731    40000                100 
    237600   4.7132838     -1.6097312      6.9992265      5.3894952      0.037706352    40000                100 
    237700   4.6182527     -1.6089217      6.8581052      5.2491835      0.037484888    40000                100 
    237800   4.577773      -1.6114228      6.797993       5.1865701      0.037363296    40000                100 
    237900   4.5457788     -1.61379        6.7504815      5.1366915      0.037266376    40000                100 
    238000   4.5869517     -1.61627        6.8116232      5.1953532      0.037346367    40000                100 
    238100   4.5606593     -1.6207921      6.7725791      5.151787       0.03723437     40000                100 
    238200   4.5950325     -1.6298438      6.8236232      5.1937794      0.037217571    40000                100 
    238300   4.579279      -1.6425998      6.8002293      5.1576295      0.037032178    40000                100 
    238400   4.5711868     -1.6574665      6.7882125      5.1307459      0.036845329    40000                100 
    238500   4.564079      -1.6719729      6.7776573      5.1056844      0.03666736     40000                100 
    238600   4.4603458     -1.6844087      6.6236135      4.9392048      0.036279162    40000                100 
    238700   4.374783      -1.6962246      6.4965528      4.8003282      0.035942016    40000                100 
    238800   4.3931586     -1.7082522      6.5238405      4.8155882      0.035857494    40000                100 
    238900   4.4208388     -1.7204214      6.5649456      4.8445242      0.035796483    40000                100 
    239000   4.4192489     -1.7313884      6.5625847      4.8311963      0.035677789    40000                100 
    239100   4.4845644     -1.741699       6.6595782      4.9178792      0.035733634    40000                100 
    239200   4.58213       -1.7499726      6.8044631      5.0544905      0.035889767    40000                100 
    239300   4.5885415     -1.7566607      6.8139841      5.0573235      0.035843       40000                100 
    239400   4.5047777     -1.7607992      6.6895949      4.9287957      0.035599057    40000                100 
    239500   4.4525026     -1.7642939      6.6119663      4.8476724      0.035435731    40000                100 
    239600   4.3942457     -1.76805        6.5254549      4.7574048      0.035254489    40000                100 
    239700   4.3177713     -1.7715757      6.4118904      4.6403147      0.03503306     40000                100 
    239800   4.2870339     -1.7727151      6.3662453      4.5935302      0.034946417    40000                100 
    239900   4.235673      -1.7735714      6.2899744      4.516403       0.034810239    40000                100 
    240000   4.2857403     -1.7717753      6.3643244      4.5925491      0.034964479    40000                100 
    240100   4.3396056     -1.7669412      6.4443143      4.6773731      0.035164924    40000                100 
    240200   4.4766066     -1.7603413      6.6477608      4.8874196      0.035595765    40000                100 
    240300   4.4401738     -1.7524695      6.5936581      4.8411885      0.03561289     40000                100 
    240400   4.5746868     -1.7421578      6.7934099      5.0512521      0.036084032    40000                100 
    240500   4.5156997     -1.7317252      6.705814       4.9740888      0.036072348    40000                100 
    240600   4.4338241     -1.7220006      6.5842289      4.8622282      0.035999774    40000                100 
    240700   4.4338707     -1.7107377      6.584298       4.8735603      0.036147896    40000                100 
    240800   4.3824967     -1.6992509      6.5080076      4.8087567      0.036171615    40000                100 
    240900   4.3105164     -1.6846051      6.4011168      4.7165117      0.036180958    40000                100 
    241000   4.4521135     -1.6687029      6.6113886      4.9426857      0.036737863    40000                100 
    241100   4.4054898     -1.6511394      6.5421523      4.8910128      0.036847005    40000                100 
    241200   4.4648217     -1.6318959      6.6302603      4.9983643      0.037238919    40000                100 
    241300   4.531686      -1.6122597      6.7295538      5.117294       0.037656541    40000                100 
    241400   4.4652754     -1.5917397      6.630934       5.0391943      0.037745966    40000                100 
    241500   4.4257447     -1.5698971      6.5722308      5.0023337      0.037916776    40000                100 
    241600   4.4948419     -1.5492712      6.6748403      5.1255691      0.038344903    40000                100 
    241700   4.5667447     -1.5270004      6.7816159      5.2546156      0.038803794    40000                100 
    241800   4.5933828     -1.4990726      6.8211735      5.3221009      0.039217207    40000                100 
    241900   4.5508806     -1.4695618      6.7580576      5.2884959      0.039474018    40000                100 
    242000   4.5981001     -1.4379909      6.8281787      5.3901877      0.039977276    40000                100 
    242100   4.6458054     -1.4049257      6.899021       5.4940952      0.040498704    40000                100 
    242200   4.5922451     -1.3713368      6.819484       5.4481472      0.040774061    40000                100 
    242300   4.6409314     -1.3370809      6.8917832      5.5547023      0.041304684    40000                100 
    242400   4.5899206     -1.3038894      6.816032       5.5121426      0.041571689    40000                100 
    242500   4.6090516     -1.2717913      6.8444417      5.5726504      0.042000708    40000                100 
    242600   4.6822777     -1.2414575      6.9531823      5.7117248      0.042540152    40000                100 
    242700   4.7133262     -1.2125086      6.9992894      5.7867808      0.042955495    40000                100 
    242800   4.7005455     -1.1890494      6.9803101      5.7912606      0.043193501    40000                100 
    242900   4.7398437     -1.1708772      7.0386679      5.8677907      0.043496511    40000                100 
    243000   4.6824447     -1.1550918      6.9534304      5.7983387      0.043531033    40000                100 
    243100   4.5776286     -1.145957       6.7977785      5.6518215      0.043369852    40000                100 
    243200   4.6454066     -1.1410866      6.8984288      5.7573421      0.043580053    40000                100 
    243300   4.6951203     -1.1406546      6.9722537      5.8315991      0.043698135    40000                100 
    243400   4.6309394     -1.142316       6.876945       5.734629       0.043501702    40000                100 
    243500   4.6722239     -1.1475706      6.9382525      5.7906818      0.043521327    40000                100 
    243600   4.5735005     -1.1567614      6.7916483      5.6348869      0.043157419    40000                100 
    243700   4.6041138     -1.1696936      6.8371091      5.6674154      0.043067244    40000                100 
    243800   4.6937088     -1.1820406      6.9701576      5.788117       0.043122375    40000                100 
    243900   4.4457184     -1.1970801      6.6018918      5.4048117      0.04231249     40000                100 
    244000   4.4580496     -1.2151827      6.6202037      5.405021       0.042115145    40000                100 
    244100   4.4032835     -1.2328176      6.538876       5.3060585      0.041753111    40000                100 
    244200   4.4945002     -1.2530219      6.6743328      5.4213109      0.041726855    40000                100 
    244300   4.6661476     -1.2747243      6.9292291      5.6545049      0.041881279    40000                100 
    244400   4.6962945     -1.2981492      6.9739974      5.6758482      0.041672492    40000                100 
    244500   4.7631168     -1.32066        7.0732284      5.7525684      0.041561474    40000                100 
    244600   4.7494111     -1.3429143      7.0528755      5.7099612      0.04125551     40000                100 
    244700   4.7126986     -1.3657398      6.9983574      5.6326176      0.040881445    40000                100 
    244800   4.7275331     -1.3853425      7.0203866      5.6350441      0.040677627    40000                100 
    244900   4.6786867     -1.4038755      6.9478498      5.5439742      0.040322106    40000                100 
    245000   4.7949835     -1.4196497      7.1205506      5.7009009      0.040406607    40000                100 
    245100   4.8129359     -1.4351372      7.1472099      5.7120727      0.040247717    40000                100 
    245200   4.9042275     -1.4511458      7.2827779      5.8316321      0.040262691    40000                100 
    245300   4.815438      -1.46599        7.1509254      5.6849354      0.039845855    40000                100 
    245400   4.8084882     -1.4796283      7.1406049      5.6609767      0.039647146    40000                100 
    245500   4.8377211     -1.4927857      7.1840158      5.69123        0.039539365    40000                100 
    245600   4.7788554     -1.505351       7.0966002      5.5912493      0.039220591    40000                100 
    245700   4.8597068     -1.5192228      7.2166646      5.6974418      0.039231912    40000                100 
    245800   4.8107991     -1.533224       7.1440367      5.6108127      0.038923453    40000                100 
    245900   4.6022141     -1.5458786      6.8342879      5.2884093      0.038234606    40000                100 
    246000   4.7343992     -1.555972       7.0305828      5.4746108      0.038422306    40000                100 
    246100   4.7778805     -1.5662631      7.0951526      5.5288895      0.038391486    40000                100 
    246200   4.9397008     -1.5753703      7.3354556      5.7600854      0.038665327    40000                100 
    246300   5.0383971     -1.5835831      7.4820198      5.8984367      0.038793252    40000                100 
    246400   5.0748803     -1.5903659      7.5361973      5.9458315      0.038786032    40000                100 
    246500   4.9355385     -1.5963736      7.3292746      5.732901       0.038349428    40000                100 
    246600   4.8964169     -1.6013336      7.2711791      5.6698454      0.038170229    40000                100 
    246700   5.0112824     -1.606083       7.4417543      5.8356713      0.038382187    40000                100 
    246800   4.8840947     -1.6112425      7.2528807      5.6416382      0.037996222    40000                100 
    246900   4.7520914     -1.6175821      7.0568558      5.4392737      0.0375823      40000                100 
    247000   4.8221106     -1.6231614      7.1608342      5.5376729      0.03767619     40000                100 
    247100   4.8140024     -1.6285506      7.1487936      5.520243       0.037579259    40000                100 
    247200   4.8935208     -1.6349654      7.2668784      5.631913       0.037686845    40000                100 
    247300   4.8524041     -1.6431108      7.2058201      5.5627093      0.037473125    40000                100 
    247400   4.78971       -1.6524439      7.1127194      5.4602755      0.037187607    40000                100 
    247500   4.9099431     -1.6630759      7.2912655      5.6281896      0.037345821    40000                100 
    247600   4.9246961     -1.673678       7.3131736      5.6394957      0.037243904    40000                100 
    247700   5.0675399     -1.6850728      7.5252968      5.840224       0.037447266    40000                100 
    247800   5.036094      -1.6967678      7.4785996      5.7818318      0.037218694    40000                100 
    247900   4.8760225     -1.7065824      7.2408934      5.534311       0.036698307    40000                100 
    248000   4.8878332     -1.714312       7.2584323      5.5441204      0.036629588    40000                100 
    248100   4.9141607     -1.7205828      7.2975287      5.5769459      0.036613635    40000                100 
    248200   4.8478741     -1.7265046      7.199093       5.4725883      0.03637545     40000                100 
    248300   4.9174868     -1.7313726      7.3024679      5.5710953      0.036481678    40000                100 
    248400   5.0691705     -1.7353115      7.5277182      5.7924067      0.036798848    40000                100 
    248500   4.9989873     -1.7370551      7.4234961      5.686441       0.036584323    40000                100 
    248600   4.9291014     -1.7392775      7.3197155      5.580438       0.036371752    40000                100 
    248700   4.9066601     -1.7415005      7.2863902      5.5448897      0.036275986    40000                100 
    248800   4.8682101     -1.7427324      7.229292       5.4865597      0.036152819    40000                100 
    248900   4.7617764     -1.7429065      7.071238       5.3283315      0.035879648    40000                100 
    249000   4.7036486     -1.7410951      6.9849182      5.2438231      0.035743754    40000                100 
    249100   4.7911422     -1.7375457      7.1148462      5.3773005      0.035988422    40000                100 
    249200   4.747882      -1.7324164      7.0506048      5.3181884      0.035930796    40000                100 
    249300   4.7060501     -1.7265422      6.9884844      5.2619422      0.035887435    40000                100 
    249400   4.6442394     -1.7211361      6.8966955      5.1755594      0.035783624    40000                100 
    249500   4.6427157     -1.7165577      6.8944328      5.1778751      0.035820464    40000                100 
    249600   4.687816      -1.7100334      6.9614068      5.2513734      0.035990823    40000                100 
    249700   4.8406872     -1.7032937      7.1884205      5.4851269      0.03642769     40000                100 
    249800   4.9272444     -1.6963794      7.316958       5.6205786      0.036702923    40000                100 
    249900   5.0420122     -1.6889651      7.4873881      5.798423       0.037058192    40000                100 
    250000   5.0915489     -1.6808919      7.5609501      5.8800582      0.037256903    40000                100 
Loop time of 10.4313 on 4 procs for 250000 steps with 100 atoms

Performance: 20706.823 tau/day, 23966.231 timesteps/s, 2.397 Matom-step/s
99.1% CPU use with 1 MPI tasks x 4 OpenMP threads

MPI task timing breakdown:
Section |  min time  |  avg time  |  max time  |%varavg| %total
---------------------------------------------------------------
Pair    | 5.5046     | 5.5046     | 5.5046     |   0.0 | 52.77
Neigh   | 0.14204    | 0.14204    | 0.14204    |   0.0 |  1.36
Comm    | 2.2262     | 2.2262     | 2.2262     |   0.0 | 21.34
Output  | 0.88564    | 0.88564    | 0.88564    |   0.0 |  8.49
Modify  | 1.406      | 1.406      | 1.406      |   0.0 | 13.48
Other   |            | 0.2669     |            |       |  2.56

Nlocal:            100 ave         100 max         100 min
Histogram: 1 0 0 0 0 0 0 0 0 0
Nghost:            556 ave         556 max         556 min
Histogram: 1 0 0 0 0 0 0 0 0 0
Neighs:           1969 ave        1969 max        1969 min
Histogram: 1 0 0 0 0 0 0 0 0 0

Total # of neighbors = 1969
Ave neighs/atom = 19.69
Neighbor list builds = 975
Dangerous builds = 0
Total wall time: 0:00:10
