ITEM: TIMESTEP
0
ITEM: NUMBER OF ATOMS
100
ITEM: BOX BOUNDS ff ff pp
0.0000000000000000e+00 2.0000000000000000e+02
0.0000000000000000e+00 2.0000000000000000e+02
-5.0000000000000000e-01 5.0000000000000000e-01
ITEM: ATOMS id type x y vx vy fx fy v_dist
24 1 9.30586 3.51568 906.941 964.843 -8071.42 -9720.68 132.418
49 1 185.03 5.17366 -850.304 948.263 8339.78 -9038.66 127.366
81 1 13.0546 9.18486 869.454 908.151 -9725.02 -8717.94 125.725
64 1 56.12 8.36987 438.8 916.301 -4880.45 -9893.24 101.595
87 1 23.5027 9.8796 764.973 901.204 -6090.43 -8136.58 118.21
60 1 139.145 10.8285 -391.45 891.715 4944.96 -7452.91 97.3853
100 1 131.862 11.9731 -318.624 880.269 3585.11 -7106.33 93.616
59 1 147.023 12.1688 -470.228 878.312 5261.08 -7098.75 99.6266
75 1 127.983 12.8637 -279.832 871.363 2781 -8942.71 91.5193
15 1 114.965 15.2643 -149.649 847.357 3074.06 -9835.17 86.0471
84 1 38.2826 16.4544 617.174 835.456 -7568.51 -7281.08 103.87
30 1 83.4901 18.9103 165.099 810.897 -1077.34 -7277.85 82.7534
12 1 92.3317 19.3746 76.6827 806.254 145.733 -6498.09 80.9893
13 1 110.788 19.5175 -107.883 804.825 1447.55 -9149.3 81.2024
45 1 31.869 22.1128 681.31 778.872 -6749.86 -8725.03 103.481
48 1 55.9423 22.0622 440.577 779.378 -5584.48 -9174.6 89.5287
44 1 16.685 25.0764 833.15 749.236 -8727.01 -6888.18 112.049
41 1 0.525224 27.4448 994.748 725.552 -10748.6 -5864.11 123.124
97 1 174.536 31.8613 -745.363 681.387 8672.41 -5457.7 100.988
5 1 48.5295 35.5566 514.705 644.434 -4172.47 -7507.91 82.4752
10 1 113.372 34.803 -133.715 651.97 533.729 -8175.38 66.5541
98 1 134.113 35.0704 -341.129 649.296 4461.48 -6269.41 73.3453
17 1 178.713 35.0259 -787.133 649.741 6481.29 -6955.48 102.066
74 1 79.9334 40.9954 200.666 590.046 -1506.64 -6425.64 62.3234
58 1 113.384 40.7601 -133.838 592.399 1659.13 -5954.41 60.7329
86 1 117.358 42.0353 -173.584 579.647 3197.89 -6105.67 60.508
35 1 177.262 43.8018 -772.621 561.982 8086.78 -5513.87 95.5388
14 1 86.4667 45.817 135.333 541.83 -901.893 -6577.58 55.8475
69 1 19.0188 49.4601 809.812 505.399 -7783.01 -4804.44 95.458
22 1 72.7708 59.4353 272.292 405.647 -3785.52 -5088.44 48.8562
36 1 93.8574 60.6092 61.4264 393.908 -1857.48 -4446.4 39.8669
20 1 42.2242 61.5032 577.758 384.968 -4506.43 -3346.64 69.4266
99 1 194.72 61.728 -947.202 382.72 9529.38 -3591.75 102.16
89 1 82.0648 62.5865 179.352 374.135 -2774.11 -2708.32 41.4903
46 1 144.86 62.8848 -448.601 371.152 3255.47 -2201.4 58.2234
8 1 119.728 65.0768 -197.278 349.232 387.13 -4125.82 40.1101
1 1 182.13 66.96 -821.305 330.4 7162.07 -3793.86 88.5272
11 1 188.485 67.0271 -884.85 329.729 10108.3 -3453.93 94.4288
28 1 134.555 67.5213 -345.551 324.787 3436.72 -4957.75 47.4228
70 1 169.053 69.1599 -690.527 308.401 6513.95 -4765.58 75.6267
72 1 159.855 78.2595 -598.547 217.405 4942.67 -1873 63.6807
16 1 116.742 79.506 -167.418 204.94 2114.23 -2865.01 26.463
67 1 33.6694 82.4142 663.306 175.858 -8246.99 -1817.58 68.6222
77 1 82.221 88.7576 177.79 112.424 -2480.39 -1132.12 21.0353
23 1 27.4225 89.7688 725.775 102.312 -7315.12 -212.446 73.2951
25 1 127.345 91.101 -273.452 88.9899 3822.99 177.045 28.7568
93 1 67.8585 97.2424 321.415 27.576 -4041.81 442.436 32.2596
62 1 0.660416 99.612 993.396 3.87977 -10491.7 571.024 99.3403
7 1 120.908 99.7606 -209.079 2.39447 1430.64 -1151.03 20.9093
39 1 134.843 100.098 -348.426 -0.977225 4362.38 1307.53 34.8428
9 1 25.2339 106.278 747.661 -62.7783 -7260.67 1730.25 75.0292
80 1 42.8813 105.69 571.187 -56.9047 -5720.58 721.9 57.4015
6 1 61.445 106.119 385.55 -61.1899 -3932.91 1380.62 39.0375
82 1 103.725 107.242 -37.2507 -72.4203 -806.038 403.037 8.1439
21 1 158.155 108.601 -581.549 -86.0098 6407.45 -675.213 58.7874
51 1 104.094 114.11 -40.9437 -141.101 -758.304 2224.42 14.6921
83 1 93.9559 117.63 60.4405 -176.3 -1579.91 3418.1 18.6373
43 1 187.227 121.301 -872.268 -213.013 9678.73 3088.38 89.7901
73 1 191.582 120.683 -915.821 -206.833 8782.91 3310.69 93.8887
38 1 104.393 124.816 -43.925 -248.162 1995.66 3364.86 25.202
55 1 82.8539 126.235 171.461 -262.35 -2839.02 2222.78 31.3411
37 1 163.773 126.303 -637.726 -263.032 8073.08 2324.4 68.9841
52 1 113.556 128.135 -135.556 -281.347 2965.18 1089.66 31.23
50 1 175.113 129.118 -751.133 -291.179 6062.28 4363.68 80.5597
65 1 107.82 136.012 -78.2031 -360.117 1037.35 2742.28 36.851
26 1 15.728 139.74 842.72 -397.4 -7749.58 4568.52 93.1721
4 1 21.178 139.009 788.22 -390.085 -6910.62 3173.9 87.9464
76 1 47.0482 139.109 529.518 -391.09 -5566.79 3264.37 65.8286
33 1 68.4322 139.777 315.678 -397.77 -2637.53 2375.79 50.7813
66 1 31.8405 143.327 681.595 -433.268 -5394.8 6034.66 80.7647
19 1 102.168 142.699 -21.683 -426.988 -1166.7 2865.49 42.7538
85 1 156.408 142.686 -564.076 -426.861 5216.17 5052.87 70.7384
40 1 91.3753 143.903 86.2475 -439.025 -2445.72 5705.44 44.7417
91 1 7.11279 144.627 928.872 -446.27 -8556.76 3027.65 103.051
42 1 52.3202 145.488 476.798 -454.879 -5543.14 6089.46 65.8977
53 1 62.9349 146.689 370.651 -466.892 -3986.66 3780.83 59.6129
27 1 156.658 147.414 -566.578 -474.139 6359.79 4322.22 73.8795
88 1 138.439 151.996 -384.395 -519.96 3346.53 5060.85 64.662
31 1 55.1412 158.137 448.588 -581.368 -4987.12 4955.61 73.4316
32 1 90.0671 157.562 99.3291 -575.62 -1011.44 7400.64 58.4127
54 1 172.14 159.301 -721.401 -593.013 6646.46 5445.48 93.3855
79 1 81.7138 163.185 182.862 -631.852 -3294.21 4827.5 65.7781
61 1 143.831 163.672 -438.308 -636.723 4835.21 6766.7 77.3
78 1 91.198 165.21 88.0197 -652.099 -598.709 7442.1 65.8012
63 1 100.67 169.088 -6.705 -690.881 680.325 8324.57 69.0914
68 1 18.6455 175.251 813.545 -752.508 -8602.04 6141.19 110.821
47 1 65.8283 176.692 341.717 -766.923 -4331.38 8297.73 83.9608
56 1 106.561 177.848 -65.6142 -778.482 521.318 7461.89 78.1242
18 1 127.112 177.354 -271.124 -773.544 1501.65 8601.55 81.9682
3 1 184.624 177.49 -846.241 -774.898 9365.95 9079.09 114.743
92 1 80.8579 178.747 191.421 -787.474 -2678.96 6648.18 81.0405
57 1 139.191 178.368 -391.907 -783.683 4133.92 8484.2 87.6214
34 1 5.11572 179.945 948.843 -799.448 -9034.64 8244.6 124.073
94 1 27.547 182.628 724.53 -826.276 -6345.4 7255.73 109.894
95 1 135.24 185.673 -352.404 -856.735 5009.89 8229.7 92.6382
90 1 151.793 187.112 -517.931 -871.124 4578.56 9561.58 101.346
2 1 189.884 186.173 -898.843 -861.73 9968.33 8320.67 124.519
96 1 112.012 187.776 -120.121 -877.762 2681.29 8168.12 88.5944
71 1 6.12781 190.09 938.722 -900.904 -9274.96 7458.02 130.109
29 1 152.9 195.803 -529.003 -958.033 6123.77 10338.4 109.438
ITEM: TIMESTEP
100
ITEM: NUMBER OF ATOMS
100
ITEM: BOX BOUNDS ff ff pp
0.0000000000000000e+00 2.0000000000000000e+02
0.0000000000000000e+00 2.0000000000000000e+02
-5.0000000000000000e-01 5.0000000000000000e-01
ITEM: ATOMS id type x y vx vy fx fy v_dist
24 1 17.9248 12.6929 819.315 872.913 -7511.58 -10250.5 119.828
49 1 176.942 14.2045 -768.888 858.98 9412.72 -9557.25 115.243
81 1 21.3239 17.8231 786.19 821.3 -9064.68 -6643.38 113.767
64 1 60.2952 17.0879 396.929 828.647 -5629.88 -8601.03 91.9287
87 1 30.7905 18.455 693.447 815.028 -5427.39 -8074.39 106.956
60 1 135.418 19.3233 -354.512 808.435 4366.68 -7321.96 88.1087
100 1 128.838 20.3479 -287.699 796.311 3718.11 -8460.29 84.7117
59 1 142.549 20.5241 -424.555 793.911 2637.26 -9036.66 90.1489
75 1 125.319 21.1564 -254.077 788.927 1739.06 -6701.04 82.8091
15 1 113.538 23.316 -135.487 764.803 3052.51 -7195.98 77.8697
84 1 44.1622 24.4161 559.282 756.738 -5772.29 -7675.89 93.9723
30 1 85.0591 26.6333 148.362 734.246 -2033.3 -6736.79 74.8726
12 1 93.0585 27.0465 69.3581 728.985 -1241.03 -7429.98 73.283
13 1 109.757 27.1786 -99.0159 728.332 264.213 -7153.63 73.4722
45 1 38.3537 29.5215 616.464 704.399 -4477.87 -7862.7 93.6349
48 1 60.1294 29.4853 399.006 706.397 -3013.11 -5812.56 81.0061
44 1 24.6137 32.2047 754.647 677.612 -6894.52 -8259.33 101.387
41 1 9.9909 34.3598 899.511 658.03 -8403.76 -5578.22 111.401
97 1 167.433 38.3509 -674.9 616.828 7642.04 -7062.79 91.3665
5 1 53.4242 41.6925 465.117 583.745 -5523.36 -7150.89 74.6262
10 1 112.093 41.0169 -122.444 591.213 1568.69 -7177.39 60.2099
98 1 130.865 41.2503 -308.819 587.59 1959.8 -5815.38 66.3639
17 1 171.218 41.2083 -712.807 588.011 6586.24 -4735.97 92.3494
74 1 81.841 46.6184 181.472 535.061 -359.112 -5585.94 56.3857
58 1 112.11 46.3956 -121.697 535.841 2329.9 -5823.41 54.9553
86 1 115.7 47.5434 -157.66 522.978 874.387 -3767.29 54.7559
35 1 169.899 49.1539 -701.671 509.561 6833.24 -5493.5 86.4357
14 1 87.7529 50.9705 122.325 489.792 -2087.34 -5970.17 50.536
69 1 26.7246 54.2702 732.929 457.922 -7089.39 -3011.52 86.3742
22 1 75.3702 63.2984 247.374 367.524 -765.969 -3096.66 44.2
36 1 94.4557 64.3609 57.7323 357.529 -39.6244 -4246.8 36.0677
20 1 47.713 65.1703 522.443 349.708 -6816.08 -2072.42 62.8255
99 1 185.709 65.371 -856.562 346.726 9592.24 -3402.39 92.44
89 1 83.7712 66.1402 161.393 337.408 -2460.27 -2083.11 37.5482
46 1 140.594 66.4113 -405.381 334.562 3367.55 -2318.41 52.6881
8 1 117.852 68.3896 -177.903 314.537 2554.4 -4531.83 36.3031
1 1 174.301 70.1054 -744.732 300.032 8395.79 -1869.63 80.0897
11 1 180.07 70.1719 -799.066 299.568 8061.99 -2879 85.4451
28 1 131.269 70.615 -312.087 294.944 3812.77 -4322.07 42.9097
70 1 162.485 72.0946 -624.408 279.051 7322.69 -4518.59 68.433
72 1 154.157 80.3285 -541.148 196.711 4582.52 -622.395 57.6193
16 1 115.143 81.4482 -153.092 183.719 1137.43 -2385.07 23.9473
67 1 39.9823 84.0767 599.826 158.514 -5668.75 -1368.28 62.0941
77 1 83.9083 89.829 158.555 102.724 -2897.35 -2006.25 19.0366
23 1 34.3217 90.745 655.718 92.6707 -8260.12 -1854.54 66.3271
25 1 124.747 91.9521 -246.451 80.6797 3024.76 -374.791 26.0231
93 1 70.9163 97.5054 290.212 24.2331 -3966.14 -622.698 29.1905
62 1 10.1145 99.6473 898.686 4.0397 -10228.4 1085.74 89.8861
7 1 118.914 99.7731 -189.47 0.269194 2080.55 -369.459 18.9151
39 1 131.531 100.088 -314.837 -0.802019 4506.84 -1112.96 31.5311
9 1 32.3528 105.683 677.296 -55.5915 -8350.11 1359.89 67.8855
80 1 48.3148 105.148 517.746 -51.5029 -4828.2 1221.46 51.9409
6 1 65.1096 105.543 347.545 -54.0941 -4703.08 2169.86 35.3279
82 1 103.375 106.563 -32.7963 -63.2144 896.274 1298.26 7.38013
21 1 152.615 107.781 -527.391 -78.1729 3758.42 1044.92 53.1871
51 1 103.703 112.77 -36.8962 -126.47 692.265 1295.23 13.2955
83 1 94.5278 115.957 54.1777 -158.967 -2148.87 1191.72 16.8696
43 1 178.927 119.263 -788.155 -193.803 7034.77 1812.94 81.2437
73 1 182.866 118.724 -829.059 -185.856 8003.51 2018.4 84.9548
38 1 103.975 122.454 -39.5712 -224.689 1007.19 1039.65 22.8036
55 1 84.4885 123.73 155.562 -238.696 -1334.7 857.365 28.3499
37 1 157.7 123.796 -577.467 -238.644 6458.67 1672.94 62.414
52 1 112.26 125.466 -122.637 -253.437 2575.03 2022.8 28.2633
50 1 167.963 126.35 -679.509 -262.394 5368.85 3797.3 72.8921
65 1 107.08 132.584 -68.6065 -325.842 -369.206 2363.58 33.3444
26 1 23.7599 135.956 764.649 -359.581 -7101.79 2511.63 84.2934
4 1 28.6791 135.293 714.46 -353.855 -5513.56 4119.83 79.5757
76 1 52.0791 135.373 477.797 -355.56 -5558.73 3844.61 59.5624
33 1 71.4322 135.985 285.292 -359.715 -1581.44 5059.11 45.9464
66 1 38.3306 139.196 617.547 -393.499 -5092.79 5510.08 73.0717
19 1 101.957 138.632 -19.4802 -385.641 -892.827 5238.04 38.6813
85 1 151.039 138.628 -509.488 -386.129 6183.29 3766.8 64.008
40 1 92.1947 139.718 77.9203 -398.15 -1374.34 2439.17 40.4781
91 1 15.9527 140.375 839.666 -404.577 -9602.32 4014.36 93.2419
42 1 56.8536 141.154 429.678 -413.367 -5654.66 4419.55 59.6259
53 1 66.4638 142.246 333.853 -423.007 -3972.57 2757.3 53.9387
27 1 151.269 142.899 -512.404 -429.277 4453.28 3896.24 66.8491
88 1 134.783 147.044 -347.529 -471.46 1870.49 6186.8 58.5059
31 1 59.4051 152.599 404.8 -527.078 -5181.91 6689.29 66.4423
32 1 91.0116 152.083 90.1744 -521.362 -556.198 6560.08 52.8526
54 1 165.274 153.659 -653.454 -535.882 5676.71 5830.62 84.4979
79 1 83.4498 157.176 164.683 -571.645 -1432.04 5370.15 59.5227
61 1 139.656 157.618 -397.371 -576.043 3085.92 5234.96 69.9461
78 1 92.0214 159.003 77.3638 -590.32 -291.82 6567.63 59.5399
63 1 100.602 162.518 -7.07964 -624.974 1047.44 5101.05 62.5214
68 1 26.3888 168.095 735.908 -680.253 -6343.75 8406.27 100.277
47 1 69.0745 169.399 308.117 -692.689 -2191.66 6019.4 75.9774
56 1 105.936 170.439 -59.5378 -704.773 1415.07 8180.7 70.6889
18 1 124.538 169.995 -244.108 -700.299 3029.32 5612.83 74.1712
3 1 176.573 170.108 -764.85 -702.389 6381.32 7719.14 103.82
92 1 82.6882 171.253 173.938 -711.983 -2264.85 6262.95 73.3263
57 1 135.463 170.913 -354.543 -708.895 4130.49 5825.61 79.286
34 1 14.1381 172.342 857.643 -722.353 -8284.81 7664.3 112.275
94 1 34.4467 174.77 656.196 -747.655 -6684.36 6372.36 99.4372
95 1 131.882 177.521 -318.862 -775.37 4844.16 7402.11 83.8215
90 1 146.862 178.824 -468.164 -788.297 5072.69 7842.38 91.7025
2 1 181.329 177.979 -813.465 -779.304 7600.99 6649.64 112.673
96 1 110.876 179.414 -107.228 -795.766 2533.91 8746.07 80.1557
71 1 15.052 181.528 848.503 -812.972 -8709.94 9239.25 117.741
29 1 147.874 186.69 -478.145 -866.645 6064.39 7702.69 99.0306
ITEM: TIMESTEP
200
ITEM: NUMBER OF ATOMS
100
ITEM: BOX BOUNDS ff ff pp
0.0000000000000000e+00 2.0000000000000000e+02
0.0000000000000000e+00 2.0000000000000000e+02
-5.0000000000000000e-01 5.0000000000000000e-01
ITEM: ATOMS id type x y vx vy fx fy v_dist
24 1 25.7269 20.9924 742.195 788.198 -6395.13 -6693.36 108.438
49 1 169.631 22.3873 -694.592 778.574 6672.88 -7367.15 104.27
81 1 28.8083 25.6413 711.296 742.872 -7777.09 -8549.65 102.944
64 1 64.075 24.9737 360.54 750.055 -3870.75 -6072.89 83.1838
87 1 37.3962 26.209 628.931 737.224 -5865.7 -8045.47 96.7696
60 1 132.056 27.0148 -319.291 731.299 3751.69 -5672.91 79.7147
100 1 126.104 27.9271 -260.073 720.699 3618.17 -6710.21 76.6547
59 1 138.514 28.0714 -382.964 717.01 5215.89 -5490.45 81.5906
75 1 122.896 28.6591 -230.444 711.683 3239.23 -5999.73 74.9251
15 1 112.25 30.5978 -122.095 692.211 2293.04 -7140.71 70.475
84 1 49.4731 31.6184 504.454 686.061 -4161.43 -8506.55 85.0236
30 1 86.4753 33.613 136.203 663.11 -468.271 -5738.86 67.7506
12 1 93.727 33.9908 63.7309 660.641 -2234.28 -6022.24 66.3066
13 1 108.808 34.1174 -89.1014 660.754 2575.93 -7171.82 66.4688
45 1 44.2217 36.2117 558.256 635.925 -6100.57 -6481.49 84.7358
48 1 63.9317 36.2064 361.806 639.134 -3464.86 -7035.28 73.284
44 1 31.7938 38.6512 681.966 613.044 -8219.04 -7312.41 91.7374
41 1 18.5565 40.6207 813.808 595.228 -6630.25 -6141.45 100.792
97 1 161.014 44.2208 -610.119 558.417 7096.94 -7060.09 82.6682
5 1 57.8471 47.2483 421.132 529.026 -5316.03 -6918.72 67.5249
10 1 110.926 46.6397 -111.033 533.545 1726.25 -6558.12 54.4674
98 1 127.918 46.8408 -280.683 530.982 4127.49 -4335.15 60.0445
17 1 164.429 46.804 -644.827 532.233 7309.76 -6695.24 83.5522
74 1 83.5714 51.7176 165.061 485.31 -808.439 -6077.31 51.0009
58 1 110.955 51.4801 -109.35 482.877 56.8916 -3347.71 49.7412
86 1 114.206 52.505 -142.014 471.282 2172.6 -3956.23 49.5741
35 1 163.224 53.9945 -635.2 460.212 6808.08 -4995.51 78.1904
14 1 88.9192 55.6243 111.285 441.129 -2143.85 -4144.35 45.7382
69 1 33.6986 58.628 662.856 414.612 -7309.29 -5509.39 78.1506
22 1 77.7174 66.788 222.796 330.495 -2729.58 -4659.59 39.9944
36 1 95.001 67.7666 51.3675 323.488 -980.863 -4352.05 32.6188
20 1 52.6869 68.4868 473.045 314.762 -6242.26 -3404.03 56.8472
99 1 177.569 68.6756 -774.409 314.651 6295.74 -3666.74 83.6547
89 1 85.3101 69.3501 147.024 304.704 -842.963 -4706.07 33.9884
46 1 136.734 69.5972 -367.153 302.592 2347.84 -3944.65 47.6835
8 1 116.161 71.3855 -159.986 285.076 2218.24 -1352.57 32.8627
1 1 167.21 72.9745 -674.204 274.839 6853.21 -2014.71 72.44
11 1 172.464 73.0193 -722.447 269.624 5737.59 -2861.46 77.3241
28 1 128.295 73.4173 -283.064 266.485 2391.23 -1758.5 38.8234
70 1 156.544 74.7527 -564.836 253.999 6016.53 -1814.44 61.9242
72 1 149.011 82.1964 -489.351 177.34 6323.92 -233.515 52.1441
16 1 113.688 83.2051 -138.339 166.971 258.867 -2408.77 21.6662
67 1 45.6838 85.5968 541.576 145.24 -5694.2 -1965.08 56.1934
77 1 85.4182 90.7997 143.417 92.9131 -1111.7 103.911 17.2417
23 1 40.5712 91.6287 594.556 84.6588 -6721.72 107.082 60.0155
25 1 122.407 92.7104 -222.394 71.8822 3604.46 596.352 23.5628
93 1 73.6872 97.7356 264.575 22.3891 -1212.06 1200.07 26.4101
62 1 18.6709 99.6839 813.959 3.5033 -9399.94 644.425 81.3297
7 1 117.118 99.7746 -169.691 0.384528 609.008 1296.42 17.1194
39 1 128.546 100.082 -284.002 -0.503147 2818.19 962.203 28.5458
9 1 38.8014 105.158 613.479 -50.6842 -5819.59 -1053.45 61.4156
80 1 53.2501 104.655 469.813 -47.7914 -4442.73 733.417 46.981
6 1 68.4106 105.036 313.723 -48.356 -3922.52 -895.595 31.9883
82 1 103.061 105.958 -29.8841 -57.6936 358.526 948.277 6.69887
21 1 147.598 107.028 -476.798 -73.1238 4185.69 369.043 48.1145
51 1 103.348 111.564 -33.8678 -113.755 523.614 2112.54 12.0393
83 1 95.0424 114.444 49.3895 -144.052 -1133.01 1446.9 15.2716
43 1 171.424 117.431 -714.086 -174.223 6487.49 1249.74 73.5204
73 1 174.975 116.941 -750.579 -169.959 8955.22 2925.66 76.8649
38 1 103.587 120.315 -37.9054 -203.068 885.608 2425.61 20.629
55 1 85.9746 121.475 141.869 -213.89 -1379.13 1050.62 25.6497
37 1 152.215 121.523 -521.616 -216.165 3512 1588.61 56.4771
52 1 111.085 123.049 -111.872 -229.542 2065.88 1213.05 25.5764
50 1 161.498 123.855 -615.333 -237.849 5857.7 3161.15 65.9623
65 1 106.432 129.477 -60.635 -295.758 -916.825 3320.13 30.1706
26 1 31.0458 132.536 693.025 -324.999 -7224.26 4247.14 76.245
4 1 35.4701 131.925 645.193 -320.934 -7591.99 2188.79 71.9952
76 1 56.6255 131.99 432.123 -321.657 -3686.75 2928.5 53.8953
33 1 74.1456 132.555 258.569 -326.539 -2507.15 4239.42 41.5722
66 1 44.2055 135.457 558.165 -355.571 -5300.97 2485.84 66.1079
19 1 101.768 134.961 -17.9781 -349.088 1401.76 2122.56 35.006
85 1 146.199 134.958 -460.728 -348.733 4921.09 2229.05 57.9346
40 1 92.9309 135.924 69.8129 -361.363 862.48 4175.63 36.6134
91 1 23.9448 136.525 760.359 -365.295 -8036.72 3444.03 84.3712
42 1 60.9369 137.222 388.397 -373.878 -5204.91 3787.23 53.9575
53 1 69.6411 138.213 302.043 -383.907 -3795.74 2727.49 48.8048
27 1 146.398 138.827 -462.914 -386.69 4940.33 2297.34 60.5003
88 1 131.468 142.552 -315.39 -427.573 4445.69 4697.27 52.9231
31 1 63.2677 147.577 367.224 -478.014 -2437.13 5797.89 60.1069
32 1 91.8716 147.123 81.8454 -470.897 -1094.28 3046.14 47.819
54 1 159.055 148.556 -590.463 -485.807 6419.12 3227.51 76.454
79 1 85.0089 151.737 147.176 -517.545 -2070.39 6181.79 53.8655
61 1 135.876 152.13 -359.775 -522.785 3195.29 4286.31 63.282
78 1 92.7638 153.391 69.8157 -532.404 676.929 3774.64 53.8793
63 1 100.531 156.579 -7.07929 -563.863 -465.158 5091.7 56.5819
68 1 33.3908 161.62 666.137 -616.097 -6856.2 7473.05 90.7401
47 1 72.0045 162.804 279.474 -626.732 -3741.86 5915.94 68.7613
56 1 105.376 163.733 -53.5059 -637.779 1114.47 5074.51 63.9593
18 1 122.215 163.333 -220.607 -633.305 2184.68 6940.27 67.1164
3 1 169.301 163.428 -691.489 -634.42 8300.43 7610.24 93.9453
92 1 84.3376 164.465 157.179 -646.024 -419.437 6877.87 66.3406
57 1 132.097 164.163 -320.432 -641.741 1797.78 7136.35 71.7439
34 1 22.3099 165.475 777.726 -652.378 -6882.36 5412.76 101.601
94 1 40.701 167.655 595.196 -676.351 -5797.09 7126.31 89.9641
95 1 128.848 170.137 -288.61 -701.787 2063.24 8462.69 75.8378
90 1 142.403 171.311 -424.976 -715.67 2939.99 7626.81 82.9653
2 1 173.589 170.566 -735.621 -704.799 7475.67 5707.36 101.956
96 1 109.852 171.843 -97.385 -719.854 2155.83 6575.04 72.5156
71 1 23.1402 173.785 770.015 -736.519 -7975.26 8120.27 106.544
29 1 143.327 178.448 -432.225 -783.525 5381.67 6274.13 89.6179
ITEM: TIMESTEP
300
ITEM: NUMBER OF ATOMS
100
ITEM: BOX BOUNDS ff ff pp
0.0000000000000000e+00 2.0000000000000000e+02
0.0000000000000000e+00 2.0000000000000000e+02
-5.0000000000000000e-01 5.0000000000000000e-01
ITEM: ATOMS id type x y vx vy fx fy v_dist
24 1 32.7896 28.487 671.854 711.531 -5566.68 -8637.43 98.1394
49 1 163.014 29.7992 -629.506 704.653 7110.01 -7761.64 94.3342
81 1 35.5717 32.7099 643.264 672.34 -7693.14 -7683.88 93.1609
64 1 67.5091 32.1146 327.175 678.973 -2092.11 -5600.32 75.2601
87 1 43.3812 33.2238 569.096 666.872 -6432.36 -6823.45 87.5486
60 1 129.027 33.9808 -287.657 662.133 3184.92 -6733.1 72.1185
100 1 123.63 34.7835 -234.302 651.769 1399.1 -4893.16 69.3656
59 1 134.861 34.8897 -347.749 648.274 4133.34 -7981.7 73.8553
75 1 120.708 35.423 -208.084 643.264 803.49 -7388.24 67.8159
15 1 111.089 37.1847 -109.588 625.809 939.169 -4760.04 63.7867
84 1 54.269 38.1399 455.909 619.744 -3309.91 -6498.16 76.9285
30 1 87.7753 39.9193 124.34 599.703 -2259.12 -4602.13 61.3118
12 1 94.3296 40.2769 57.5271 597.975 -895.908 -7411.25 59.9917
13 1 107.968 40.4071 -80.2215 598.346 -438.261 -5702.56 60.1233
45 1 49.5279 42.2698 504.731 576.979 -3714.57 -7446.07 76.6825
48 1 67.3599 42.282 324.765 577.166 -1843.62 -6453.82 66.308
44 1 38.2826 44.4939 616.858 556.478 -6145.07 -5409.03 83.0058
41 1 26.3059 46.278 737.063 537.11 -5680.82 -5668.78 91.1969
97 1 155.218 49.5425 -550.181 506.105 5405.23 -6674.16 74.7998
5 1 61.8498 52.2826 379.65 478.131 -2920.99 -3377.44 61.0933
10 1 109.879 51.7097 -99.0239 481.582 1339.78 -3940.92 49.2904
98 1 125.244 51.8947 -253.395 480.877 3627.4 -6479.73 54.3264
17 1 158.287 51.872 -585.112 481.886 4814.97 -5752.56 75.5886
74 1 85.1413 56.3406 148.38 440.409 -2310.02 -3733.93 46.1186
58 1 109.926 56.0746 -96.969 437.586 1522.5 -4266.2 45.0329
86 1 112.858 56.9834 -127.926 425.694 2006.75 -3413.84 44.8973
35 1 157.178 58.3732 -574.36 416.679 5631.66 -5138.78 70.7258
14 1 89.9895 59.8283 102.104 400.081 -2119.99 -4923.38 41.4002
69 1 39.9974 62.572 599.042 374.183 -6090.39 -3850.63 70.7189
22 1 79.8422 69.9408 202.246 300.809 -2933.43 -3481.27 36.1924
36 1 95.4987 70.8401 47.9419 291.868 -51.476 -4137.48 29.5053
20 1 57.1897 71.477 427.959 283.723 -3007.06 -4129.63 51.4421
99 1 170.203 71.6771 -699.312 285.581 6870.47 -4066.9 75.7013
89 1 86.7072 72.2532 133.273 276.443 -774.691 -3785.85 30.7666
46 1 133.246 72.4693 -331.291 272.805 3344.88 -2706.47 43.1652
8 1 114.64 74.1063 -144.526 258.788 1216.55 -1742.25 29.7456
1 1 160.799 75.5907 -609.072 248.511 5982.63 -3022.32 65.5162
11 1 165.585 75.5842 -654.334 243.987 5661.67 -2291.54 69.9825
28 1 125.601 75.9558 -256.684 241.751 3165.2 -2300.19 35.1214
70 1 151.168 77.1808 -510.689 231.68 5108.83 -3588.95 56.0256
72 1 144.36 83.8873 -442.161 161.318 2789.37 -3182.41 47.1957
16 1 112.367 84.7957 -126.332 151.104 1873.4 56.8914 19.5988
67 1 50.8315 86.9815 488.614 132.078 -4163.23 -445.473 50.8628
77 1 86.7799 91.6863 129.26 84.3146 -1577.33 -1045.15 15.6169
23 1 46.221 92.434 536.828 76.0298 -6305.8 813.162 54.3087
25 1 120.298 93.4064 -200.427 66.6139 1159.39 214.176 21.3425
93 1 76.2194 97.9617 242.435 22.3335 -1936.91 234.287 23.8678
62 1 26.4142 99.7208 736.429 4.07351 -7659.65 -304.822 73.5864
7 1 115.491 99.7833 -155.587 0.810123 -145.431 -1066.43 15.4925
39 1 125.846 100.084 -257.014 0.966667 4184.36 -1545.15 25.8463
9 1 44.6264 104.671 553.073 -46.4046 -4257.89 -204.207 55.5703
80 1 57.7177 104.197 425.623 -43.7476 -4884.11 -1131.69 42.4901
6 1 71.3932 104.578 283.022 -43.464 -1865.22 -84.2854 28.9708
82 1 102.778 105.405 -26.8821 -52.3373 1584.04 -734.733 6.07723
21 1 143.06 106.332 -432.169 -66.168 3167.95 -379.74 43.5233
51 1 103.02 110.477 -31.032 -103.733 1579.77 -295.429 10.9038
83 1 95.5203 113.083 45.7437 -127.945 55.5569 -157.269 13.8285
43 1 164.633 115.773 -645.314 -156.677 5830.53 1997.95 66.5301
73 1 167.833 115.325 -678.781 -153.921 6989.25 3120.82 69.5421
38 1 103.224 118.388 -34.6245 -182.549 -93.8225 1042.8 18.6689
55 1 87.3299 119.436 129.366 -193.864 202.276 459.556 23.2013
37 1 147.255 119.469 -469.773 -195.196 6251.19 3508.62 51.1088
52 1 110.016 120.877 -102.017 -206.133 1866.07 3682 23.1547
50 1 155.633 121.586 -557.894 -215.439 5401.34 1396.28 59.674
65 1 105.853 126.674 -55.7473 -266.12 -525.216 2512.05 27.309
26 1 37.6434 129.448 627.17 -292.69 -7574.1 4516.45 68.9602
4 1 41.6038 128.867 583.532 -291.361 -6719.22 2091.2 65.1416
76 1 60.7399 128.92 390.247 -292.796 -3242.21 3220.21 48.762
33 1 76.6101 129.453 234.975 -294.78 -1675.03 2760.91 37.6104
66 1 49.5217 132.075 505.979 -320.279 -6232.51 2362.09 59.8067
19 1 101.604 131.635 -15.7548 -315.659 -1362.5 3987.25 31.676
85 1 141.813 131.639 -417.395 -315.603 4459.83 1910.38 52.4338
40 1 93.5951 132.49 62.7604 -326.412 571.598 2064.66 33.115
91 1 31.1748 133.036 686.444 -332.453 -8337.47 2129.97 76.3434
42 1 64.633 133.665 351.752 -338.512 -5155.79 2510.24 48.8275
53 1 72.5226 134.561 273.911 -346.705 -4353.73 2244.37 44.1528
27 1 141.989 135.143 -419.51 -349.867 4103.21 4602.41 54.7548
88 1 128.467 138.484 -285.106 -386.254 3926.67 5292.28 47.8687
31 1 66.7662 143.033 332.412 -432.094 -2503.97 3795.71 54.3724
32 1 92.6494 142.634 73.5721 -426.571 -394.309 4709.59 43.2631
54 1 153.437 143.938 -534.02 -437.385 6467.21 5331.63 69.1815
79 1 86.4128 146.822 133.533 -467.398 -1115.55 5100.47 48.7535
61 1 132.446 147.152 -326.883 -472.889 4749.08 4719.31 57.2366
78 1 93.4263 148.318 63.1418 -483.083 -1989.12 4144.12 48.7628
63 1 100.461 151.211 -6.57229 -511.216 1243.91 3837.82 51.2131
68 1 39.7351 155.764 602.673 -557.35 -7100.79 5598.72 82.1063
47 1 74.6608 156.841 251.691 -566.558 -1468.07 4838.01 62.2333
56 1 104.874 157.661 -47.4811 -577.086 -194.259 6312.45 57.8662
18 1 120.121 157.302 -198.942 -572.663 535.681 6456.62 60.7318
3 1 162.718 157.393 -626.025 -573.401 7020.63 5105.07 85.0143
92 1 85.8342 158.329 142.56 -581.761 -2069.15 6313.77 60.0247
57 1 129.044 158.06 -290.866 -580.302 4544.06 6417.35 64.9187
34 1 29.7101 159.271 702.88 -589.569 -6271.17 6803.26 91.9442
94 1 46.368 161.225 538.805 -609.798 -4325.25 5321.19 81.3932
95 1 126.105 163.461 -261.237 -634.881 1545.46 6813.92 68.6208
90 1 138.359 164.503 -385.118 -647.562 3448.2 7773.12 75.0471
2 1 166.597 163.864 -665.007 -637.299 7760.32 6738.83 92.2701
96 1 108.921 164.993 -89.0882 -650.561 1624.96 5332.98 65.6021
71 1 30.4674 166.771 696.168 -668.262 -7202.17 5829.57 96.4008
29 1 139.226 170.992 -389.272 -709.255 5468.87 5419.4 81.1083
ITEM: TIMESTEP
400
ITEM: NUMBER OF ATOMS
100
ITEM: BOX BOUNDS ff ff pp
0.0000000000000000e+00 2.0000000000000000e+02
0.0000000000000000e+00 2.0000000000000000e+02
-5.0000000000000000e-01 5.0000000000000000e-01
ITEM: ATOMS id type x y vx vy fx fy v_dist
24 1 39.1786 35.2656 607.038 644.992 -7098.61 -7190.33 88.8245
49 1 157.018 36.5042 -570.468 637.541 7158.79 -6507.19 85.3394
81 1 41.6826 39.1115 581.057 609.675 -5889.08 -6228.53 84.3109
64 1 70.6239 38.5698 295.683 613.616 -1352.98 -7490.39 68.0928
87 1 48.7907 39.5661 514.521 602.549 -5706.27 -5371.77 79.2127
60 1 126.298 40.2797 -258.922 598.98 1470.02 -7497.87 65.2539
100 1 121.404 40.9923 -211.593 590.759 2437.95 -7446.48 62.7698
59 1 131.554 41.0586 -314.881 586.854 4818.04 -5855.01 66.8563
75 1 118.731 41.5283 -187.04 579.376 893.497 -7495.7 61.3987
15 1 110.039 43.1379 -99.4942 565.916 1799.52 -6921.93 57.7414
84 1 58.6059 44.0379 412.867 561.623 -4920.8 -6201.2 69.6077
30 1 88.9609 45.619 113.033 541.785 -1878.42 -5838.66 55.4901
12 1 94.8723 45.9693 51.5179 541.004 -1207.12 -6149.44 54.2735
13 1 107.211 46.1039 -71.3736 541.747 -161.259 -6173.79 54.3763
45 1 54.3207 47.7638 455.235 522.253 -6029.49 -3512.46 69.3918
48 1 70.4465 47.7759 293.757 522.239 -3057.16 -4533.7 60.0064
44 1 44.1515 49.7959 557.874 503.689 -4493.83 -5971.88 75.0967
41 1 33.3211 51.3844 666.672 485.905 -7975.88 -4197.27 82.52
97 1 149.984 54.3577 -498.289 458.318 6003.47 -5493.87 67.6878
5 1 65.4666 56.8291 343.689 432.048 -3476.45 -2703.86 55.2836
10 1 108.946 56.2975 -88.0841 436.925 -264.227 -3704.14 44.6088
98 1 122.827 56.448 -229.77 431.917 2437.27 -4610.93 49.1718
17 1 152.713 56.4568 -530.394 435.436 4625.51 -5360.79 68.3718
74 1 86.5494 60.5279 132.835 397.593 -1906.2 -2628.52 41.7009
58 1 108.997 60.2374 -89.1174 396.588 1686.11 -2773.05 40.7677
86 1 111.637 61.0282 -116.012 384.039 1454.21 -4070.52 40.6721
35 1 151.713 62.3365 -519.315 376.21 4265.17 -5033.83 63.975
14 1 90.9615 63.638 93.159 362.017 505.88 -4669.22 37.4685
69 1 45.7014 66.1336 543.304 338.676 -6162.43 -2955.85 63.9943
22 1 81.7617 72.8053 182.415 272.08 -2773.68 -2003.95 32.7443
36 1 95.9569 73.6169 43.6069 263.986 -639.782 -2236.54 26.6911
20 1 61.2649 74.1679 387.537 255.009 -3170.78 -1856.37 46.5586
99 1 163.549 74.3971 -632.871 259.046 5155.47 -3931.5 68.5125
89 1 87.9865 74.8867 122.532 250.088 -806.678 -2821.54 27.8388
46 1 130.096 75.0651 -299.519 247.006 2697.85 -1964.87 39.0833
8 1 113.276 76.5751 -129.331 234.759 626.476 -2177.58 26.9252
1 1 155.006 77.9625 -550.783 226.088 6498.02 -1563.83 59.2562
11 1 159.357 77.898 -593.732 220.17 6206.81 -3195.75 63.3381
28 1 123.161 78.2577 -231.694 218.556 2399.43 -692.969 31.7669
70 1 146.31 79.3844 -462.054 208.7 4322.83 -2898.28 50.6914
72 1 140.145 85.4059 -401.798 143.21 5136.92 -467.784 42.7159
16 1 111.17 86.2313 -113.807 136.084 -166.579 -471.769 17.73
67 1 55.4748 88.2358 441.833 119.391 -2728.73 -921.456 46.0531
77 1 88.0129 92.4989 117.901 78.0396 -177.324 -601.209 14.1406
23 1 51.3192 93.1615 484.71 69.7699 -3882.11 -215.185 49.1587
25 1 118.391 94.0419 -181.972 61.1761 790.88 129.082 19.3323
93 1 78.5264 98.1515 219.193 16.6212 -2841.04 -1860.18 21.553
62 1 33.426 99.7604 667.11 4.21723 -6715.47 361.465 66.5744
7 1 114.017 99.8022 -139.16 1.74614 2168.13 1112.38 14.0181
39 1 123.395 100.096 -232.711 1.83236 3286.12 937.703 23.3948
9 1 49.8887 104.226 500.593 -42.58 -3828.3 400.564 50.2891
80 1 61.7665 103.778 385.261 -40.4694 -4527.8 -1183.95 38.4196
6 1 74.0823 104.163 255.592 -40.2861 -2676.12 -950.378 26.2499
82 1 102.524 104.908 -23.5899 -46.9351 1805.01 -1153.98 5.51876
21 1 138.944 105.695 -392.533 -61.5495 4083.13 -466.003 39.3578
51 1 102.73 109.5 -27.5863 -92.926 673.131 916.32 9.88468
83 1 95.9629 111.862 42.3136 -116.702 -530.399 96.8286 12.5303
43 1 158.494 114.274 -583.032 -142.844 7234.27 121.662 60.2105
73 1 161.37 113.865 -614.798 -138.184 4774.5 1459.77 62.9168
38 1 102.893 116.653 -31.3645 -164.612 329.874 1195.74 16.9025
55 1 88.5551 117.591 116.203 -176.757 -1094.93 594.247 20.986
37 1 142.785 117.619 -425.451 -175.512 4387.95 2609.12 46.271