ITEM: TIMESTEP
0
ITEM: NUMBER OF ATOMS
100
ITEM: BOX BOUNDS ff ff pp
0.0000000000000000e+00 2.0000000000000000e+02
0.0000000000000000e+00 2.0000000000000000e+02
-5.0000000000000000e-01 5.0000000000000000e-01
ITEM: ATOMS id type x y vx vy fx fy v_dist
24 1 9.30586 3.51568 906.941 964.843 91.0522 -1037.09 132.418
49 1 185.03 5.17366 -850.304 948.263 687.048 -504.287 127.366
64 1 56.12 8.36987 438.8 916.301 -1469.28 -552.731 101.595
81 1 13.0546 9.18486 869.454 908.151 -1361.91 -1638.38 125.725
87 1 23.5027 9.8796 764.973 901.204 794.33 -25.7449 118.21
60 1 139.145 10.8285 -391.45 891.715 1421.91 572.531 97.3853
100 1 131.862 11.9731 -318.624 880.269 717.492 816.091 93.616
59 1 147.023 12.1688 -470.228 878.312 1029.03 806.058 99.6266
75 1 127.983 12.8637 -279.832 871.363 262.515 -1100.45 91.5193
15 1 114.965 15.2643 -149.649 847.357 1727.22 -2208.96 86.0471
84 1 38.2826 16.4544 617.174 835.456 -2013.95 238.019 103.87
30 1 83.4901 18.9103 165.099 810.897 408.548 20.2228 82.7534
12 1 92.3317 19.3746 76.6827 806.254 835.878 758.196 80.9893
13 1 110.788 19.5175 -107.883 804.825 476.598 -1905.87 81.2024
45 1 31.869 22.1128 681.31 778.872 -618.07 -1715.18 103.481
48 1 55.9423 22.0622 440.577 779.378 -1619.29 -2160.19 89.5287
44 1 16.685 25.0764 833.15 749.236 -1228.66 -145.055 112.049
41 1 0.525224 27.4448 994.748 725.552 -1795.87 665.854 123.124
97 1 174.536 31.8613 -745.363 681.387 1964.14 674.778 100.988
10 1 113.372 34.803 -133.715 651.97 1108.29 -1715.53 66.5541
98 1 134.113 35.0704 -341.129 649.296 -462.292 -2304.97 73.3453
17 1 178.713 35.0259 -787.133 649.741 1837.32 -426.198 102.066
5 1 48.5295 35.5566 514.705 644.434 -1904.75 -1102.51 82.4752
58 1 113.384 40.7601 -133.838 592.399 633.854 -1117.58 60.7329
74 1 79.9334 40.9954 200.666 590.046 120.092 -620.472 62.3234
86 1 117.358 42.0353 -173.584 579.647 1635.64 -888.846 60.508
35 1 177.262 43.8018 -772.621 561.982 1133.19 -456.029 95.5388
14 1 86.4667 45.817 135.333 541.83 316.104 -1701.12 55.8475
69 1 19.0188 49.4601 809.812 505.399 -494.706 -255.845 95.458
22 1 72.7708 59.4353 271.747 406.647 -1334.35 -1438.62 48.8562
20 1 42.2242 61.5032 577.758 384.968 -1820.97 -892.29 69.4266
36 1 93.8574 60.6092 61.3036 394.908 1209.85 108.131 39.8669
99 1 194.72 61.728 -947.202 382.72 1004.57 -147.271 102.16
89 1 82.0648 62.5865 178.994 375.135 -1159.58 657.893 41.4903
46 1 144.86 62.8848 -448.601 371.152 -781.939 1138.97 58.2234
8 1 119.728 65.0768 -196.883 350.232 -1388.77 -983.724 40.1101
28 1 134.555 67.5213 -344.86 325.787 -706.121 -815.642 47.4228
1 1 182.13 66.96 -821.305 330.4 2081.1 -487.043 88.5272
11 1 188.485 67.0271 -884.85 329.729 866.058 -2039.61 94.4288
70 1 169.053 69.1599 -690.527 308.401 299.201 -1989.97 75.6267
72 1 159.855 78.2595 -598.547 217.405 -444.258 83.6426 63.6807
16 1 116.742 79.506 -167.083 205.94 607.136 -1021.55 26.463
67 1 33.6694 82.4142 663.306 175.858 -2277.24 -234.856 68.6222
23 1 27.4225 89.7688 725.775 102.312 -1428.27 -110.186 73.2951
77 1 82.221 88.7576 177.434 113.424 -234.804 697.249 21.0353
25 1 127.345 91.101 -272.905 89.9899 1361.38 976.954 28.7568
93 1 67.8585 97.2424 320.773 28.576 -1148.43 689.62 32.2596
62 1 0.660416 99.612 993.396 3.87977 -1551.12 605.942 99.3403
7 1 120.908 99.7606 -208.661 3.39447 -451.494 -1130.48 20.9093
39 1 134.843 100.098 -347.729 0.0227749 1225.84 1297.74 34.8428
9 1 25.2339 106.278 747.661 -62.7783 -531.722 1165.24 75.0292
80 1 42.8813 105.69 571.187 -56.9047 -579.89 209.758 57.4015
6 1 61.445 106.119 384.779 -60.1899 -462.189 828.912 39.0375
82 1 103.725 107.242 -37.1762 -71.4203 -1141.37 -249.746 8.1439
21 1 158.155 108.601 -581.549 -86.0098 1173.51 -1449.3 58.7874
51 1 104.094 114.11 -40.8618 -140.101 -1126.88 953.516 14.6921
83 1 93.9559 117.63 60.3196 -175.3 -1035.82 1830.4 18.6373
73 1 191.582 120.683 -915.821 -206.833 1871.87 1165.09 93.8887
43 1 187.227 121.301 -872.268 -213.013 496.964 1455.37 89.7901
38 1 104.393 124.816 -43.8372 -247.162 1600.25 1130.4 25.202
55 1 82.8539 126.235 171.118 -261.35 -1295.53 -139.371 31.3411
37 1 163.773 126.303 -637.726 -263.032 2333.54 -42.8886 68.9841
52 1 113.556 128.135 -135.284 -280.347 1744.91 -1443.47 31.23
50 1 175.113 129.118 -751.133 -291.179 -697.916 1743.07 80.5597
65 1 107.82 136.012 -78.0467 -359.117 333.366 -499.774 36.851
4 1 21.178 139.009 788.22 -390.085 -110.596 984.605 87.9464
76 1 47.0482 139.109 529.518 -391.09 442.058 -335.861 65.8286
26 1 15.728 139.74 842.72 -397.4 -1114.33 -249.132 93.1721
33 1 68.4322 139.777 315.678 -397.77 203.569 -1204.14 50.7813
66 1 31.8405 143.327 681.595 -433.268 739.551 2135.24 80.7647
19 1 102.168 142.699 -21.6397 -425.988 -1361.89 -978.395 42.7538
85 1 156.408 142.686 -564.076 -426.861 139.481 1211.12 70.7384
91 1 7.11279 144.627 928.872 -446.27 -2512.12 1761.46 103.051
40 1 91.3753 143.903 86.075 -438.025 645.888 -997.025 44.7417
42 1 52.3202 145.488 476.798 -454.879 -1251.95 1995.55 65.8977
53 1 62.9349 146.689 370.651 -466.892 -650.803 -421.201 59.6129
27 1 156.658 147.414 -566.578 -474.139 1260.59 54.9716 73.8795
88 1 138.439 151.996 -384.395 -519.96 -113.026 381.214 64.662
32 1 90.0671 157.562 99.3291 -575.62 -600.568 -282.46 58.4127
31 1 55.1412 158.137 448.588 -581.368 -466.732 2225.81 73.4316
54 1 172.14 159.301 -721.401 -593.013 153.85 108.355 93.3855
79 1 81.7138 163.185 182.862 -631.852 -1648.45 -859.171 65.7781
61 1 143.831 163.672 -438.308 -636.723 890.44 1036.2 77.3
78 1 91.198 165.21 88.0197 -652.099 193.469 1573.21 65.8012
63 1 100.67 169.088 -6.705 -690.881 619.98 2106.64 69.0914
68 1 18.6455 175.251 813.545 -752.508 -1280.13 -631.378 110.821
47 1 65.8283 176.692 341.717 -766.923 -1255.93 1395.42 83.9608
18 1 127.112 177.354 -271.124 -773.544 136.3 450.624 81.9682
92 1 80.8579 178.747 191.421 -787.474 -1401 1653.58 81.0405
56 1 106.561 177.848 -65.6142 -778.482 969.148 2108.59 78.1242
57 1 139.191 178.368 -391.907 -783.683 -372.844 -442.873 87.6214
3 1 184.624 177.49 -846.241 -774.898 1061.09 1422.27 114.743
34 1 5.11572 179.945 948.843 -799.448 -495.052 1049.57 124.073
94 1 27.547 182.628 724.53 -826.276 175.369 -180.758 109.894
95 1 135.24 185.673 -352.404 -856.735 1838.25 519.086 92.6382
90 1 151.793 187.112 -517.931 -871.124 -82.8211 1721.47 101.346
2 1 189.884 186.173 -898.843 -861.73 1878.74 565.096 124.519
96 1 112.012 187.776 -120.121 -877.762 1600.2 268.262 88.5944
71 1 6.12781 190.09 938.722 -900.904 -826.468 -650.116 130.109
29 1 152.9 195.803 -529.003 -958.033 1362.74 1716.11 109.438
ITEM: TIMESTEP
100
ITEM: NUMBER OF ATOMS
100
ITEM: BOX BOUNDS ff ff pp
0.0000000000000000e+00 2.0000000000000000e+02
0.0000000000000000e+00 2.0000000000000000e+02
-5.0000000000000000e-01 5.0000000000000000e-01
ITEM: ATOMS id type x y vx vy fx fy v_dist
24 1 10.2122 4.47999 905.896 963.868 -219.561 -2482.41 131.095
49 1 184.181 6.12152 -849.405 947.423 2571.08 -1911.52 126.093
64 1 56.5585 9.28568 438.309 915.343 -1638.34 659.923 100.58
81 1 13.9236 10.0925 868.575 907.201 -2528.81 -1217.92 124.469
87 1 24.2674 10.7804 764.347 900.265 747.676 -820.226 117.028
60 1 138.754 11.7198 -391.095 890.995 1211.69 -123.824 96.4118
100 1 131.544 12.8529 -318.239 879.372 1158.74 -1373.05 92.6803
59 1 146.553 13.0466 -469.667 877.353 -1142.33 -1972.01 98.6309
75 1 127.703 13.7347 -279.642 870.545 -524.117 322.798 90.6046
15 1 114.815 16.1111 -149.511 846.311 1848.13 -389.995 85.1871
84 1 38.8996 17.2896 616.65 834.714 -793.498 -939.543 102.831
30 1 83.6551 19.7208 164.83 810.148 -714.307 -200.21 81.9262
12 1 92.4083 20.1804 76.6008 805.397 -624.241 -942.019 80.1798
13 1 110.68 20.3219 -107.92 804.037 -619.231 -670.578 80.3907
45 1 32.55 22.8913 680.632 778.059 1010.87 -1594.05 102.446
48 1 56.3826 22.8412 440.169 778.728 539.735 477.435 88.6338
44 1 17.5178 25.8252 832.4 748.457 -176.041 -2229.73 110.929
41 1 1.51947 28.1701 993.7 724.992 -397.278 281.357 121.893
97 1 173.791 32.5424 -744.678 680.743 1635.22 -1573.04 99.9783
10 1 113.238 35.4546 -133.643 651.389 -737.072 -1963.19 65.8889
98 1 133.772 35.7195 -340.94 648.788 684.924 -1912.32 72.6121
17 1 177.927 35.6754 -786.365 649.104 -344.664 -585.584 101.046
5 1 49.0439 36.2007 514.124 643.803 -1060.06 504.399 81.6509
58 1 113.25 41.3523 -133.715 591.934 1591.66 -824.816 60.1258
74 1 80.134 41.5852 200.405 589.438 912.997 -1052.21 61.7005
86 1 117.185 42.6145 -173.476 578.912 -530.214 887.623 59.9033
35 1 176.49 44.3635 -772.121 561.533 584.955 -957.269 94.5838
14 1 86.6019 46.3586 135.184 541.24 -999.508 -1612.09 55.2893
69 1 19.8282 49.9652 809.024 504.959 -565.228 1066.57 94.5039
22 1 73.0425 59.8417 271.584 406.294 1439.09 174.686 48.3673
20 1 42.8018 61.888 577.41 384.699 -38.8985 -1055.08 68.7325
36 1 93.9185 61.004 61.2025 394.656 -1651.8 1033.15 39.4674
99 1 193.773 62.1106 -946.207 382.383 1969.54 -315.713 101.139
89 1 82.2437 62.9614 178.726 374.643 -1025.09 919.274 41.0749
46 1 144.412 63.2557 -448.099 370.651 -240.86 659.241 57.6415
8 1 119.531 65.4267 -196.626 349.727 971.869 -1735.97 39.7086
28 1 134.21 67.847 -344.691 325.571 1290.36 807.721 46.9485
1 1 181.31 67.2903 -820.325 330.2 887.729 -211.9 87.6424
11 1 187.601 67.3567 -883.906 329.51 1574.93 -1702.01 93.485
70 1 168.363 69.4681 -689.796 308.094 1766.33 -2036.47 74.8708
72 1 159.256 78.4768 -597.909 217.188 -234.578 1129.82 63.0442
16 1 116.575 79.7118 -167.083 205.555 -227.566 -753.048 26.198
67 1 34.3324 82.5899 662.611 175.611 -329.781 42.2558 67.9363
23 1 28.1479 89.8711 724.814 102.312 -2037.11 -1081.77 72.5626
77 1 82.3983 88.871 177.154 113.323 -1878.48 -1041.6 20.8249
25 1 127.072 91.191 -272.532 89.9204 832.095 342.911 28.4696
93 1 68.1791 97.271 320.391 28.4762 -1384.01 -409.094 31.9377
62 1 1.65333 99.6159 992.391 3.92726 -2230.63 1123.33 98.3474
7 1 120.699 99.7638 -208.487 3.19121 393.574 -370.316 20.7007
39 1 134.495 100.098 -347.336 0.0307483 1705.56 -1122.12 34.4953
9 1 25.9812 106.215 747 -62.5918 -2322.31 867.08 74.2792
80 1 43.4522 105.634 570.709 -56.8506 -218.52 763.716 56.8278
6 1 61.8295 106.059 384.26 -59.9963 -1611.35 1690.24 38.6483
82 1 103.688 107.171 -37.0434 -71.1077 605.747 737.565 8.06354
21 1 157.574 108.515 -581.094 -85.96 -938.521 349.014 58.1998
51 1 104.054 113.97 -40.8082 -139.839 364.243 169.758 14.5463
83 1 94.0162 117.455 60.2052 -175.065 -1668.6 -224.069 18.452
73 1 190.667 120.476 -914.798 -206.745 63.2529 80.56 92.9502
43 1 186.355 121.088 -871.441 -212.663 579.929 371.72 88.8927
38 1 104.349 124.569 -43.7758 -246.931 655.651 -962.614 24.9511
55 1 83.025 125.974 170.992 -261.23 50.9217 -1271.06 31.0288
37 1 163.135 126.04 -637.139 -262.839 1318.92 -452.554 68.2945
52 1 113.42 127.855 -135.153 -279.946 1484.52 -233.392 30.919
50 1 174.363 128.827 -750.374 -290.779 -680.657 1463.97 79.7544
65 1 107.742 135.653 -77.7498 -358.76 -978.897 -538.591 36.4837
4 1 21.966 138.619 787.661 -389.7 -238.6 -697.343 87.0673
76 1 47.5775 138.718 529.118 -390.793 1107.1 970.876 65.1706
26 1 16.5702 139.343 841.739 -397.187 -1620.88 684.7 92.2409
33 1 68.7477 139.379 315.326 -397.36 958.83 1858.94 50.2737
66 1 32.5218 142.894 681.002 -432.991 405.819 2007.65 79.9574
19 1 102.147 142.273 -21.6094 -425.496 -1067.18 1806.55 42.3274
85 1 155.844 142.259 -563.425 -426.422 1650.34 329.91 70.0314
91 1 8.04118 144.181 927.931 -445.923 -1523.26 -1099.92 102.021
40 1 91.4613 143.465 85.9125 -437.673 -1288.56 404.212 44.2955
42 1 52.7967 145.033 476.145 -454.609 -1833.21 738.697 65.2391
53 1 63.3054 146.223 370.131 -466.482 -1003.13 -1009.84 59.0171
27 1 156.092 146.94 -565.986 -473.696 -107.987 74.6283 73.1411
88 1 138.055 151.476 -383.982 -519.545 -1224.13 1990.83 64.0157
32 1 90.1663 156.987 99.1171 -575.156 -1232.11 1992.43 57.8288
31 1 55.5896 157.556 448.169 -580.844 -101.836 1926.01 72.6977
54 1 171.419 158.709 -720.755 -592.353 -141.182 1061.94 92.4521
79 1 81.8965 162.554 182.599 -631.212 33.2227 281.712 65.1207
61 1 143.393 163.036 -437.952 -636.076 -452.699 107.208 76.5274
78 1 91.2859 164.558 87.6901 -651.479 394.986 1313.61 65.1436
63 1 100.664 168.398 -6.80426 -690.173 984.372 -462.766 68.4009
68 1 19.4587 174.499 812.715 -751.69 207.296 2353.59 109.713
47 1 66.1698 175.926 341.263 -766.031 550.65 -145.809 83.1217
18 1 126.841 176.581 -270.87 -772.813 1091.07 1903.36 81.1489
92 1 81.0493 177.96 191.356 -786.726 396.236 -608.306 80.2305
56 1 106.496 177.07 -65.4642 -777.838 -1206.79 1470.25 77.3432
57 1 138.799 177.585 -391.433 -782.848 -133.675 -78.4302 86.7456
3 1 183.778 176.715 -845.389 -774.104 1429.25 -494.026 113.596
34 1 6.06402 179.146 947.801 -798.547 -651.613 1236.13 122.833
94 1 28.2712 181.802 723.875 -825.45 -843.119 -283.558 108.796
95 1 134.888 184.817 -352.058 -855.898 2007.63 500.077 91.7123
90 1 151.275 186.242 -517.37 -870.263 906.464 825.698 100.333
2 1 188.986 185.312 -897.966 -860.825 359.715 -287.598 123.274
96 1 111.892 186.899 -119.848 -877.051 1582.37 1662.25 87.7088
71 1 7.06597 189.19 937.691 -899.777 -1158.58 2006.33 128.808
29 1 152.372 194.846 -528.418 -957.055 1810.22 -11.9861 108.344
ITEM: TIMESTEP
200
ITEM: NUMBER OF ATOMS
100
ITEM: BOX BOUNDS ff ff pp
0.0000000000000000e+00 2.0000000000000000e+02
0.0000000000000000e+00 2.0000000000000000e+02
-5.0000000000000000e-01 5.0000000000000000e-01
ITEM: ATOMS id type x y vx vy fx fy v_dist
24 1 11.1177 5.4433 905.084 962.736 127.979 232.756 129.773
49 1 183.332 7.06856 -848.44 946.622 571.256 -523.101 124.821
64 1 56.9966 10.2006 437.869 914.407 -1100.08 -2034.38 99.5652
81 1 14.7918 10.9993 867.85 906.325 -1132.04 528.602 123.213
87 1 25.0314 11.6801 763.741 899.343 -335.94 -1570.54 115.848
60 1 138.363 12.6104 -390.545 890.086 949.101 757.696 95.4393
100 1 131.226 13.7319 -317.894 878.515 1336.54 -376.899 91.7456
59 1 146.083 13.9235 -469.075 876.337 1856.82 811.041 97.6363
75 1 127.424 14.6047 -279.423 869.456 1215.36 253.958 89.6907
15 1 114.666 16.957 -149.311 845.491 1223.43 -1061.16 84.3281
84 1 39.5158 18.1239 615.864 834.019 271.947 -2480.57 101.794
30 1 83.8199 20.5305 164.866 809.208 731.777 88.5567 81.0999
12 1 92.485 20.9855 76.6304 804.706 -1677.22 -215.784 79.3711
13 1 110.573 21.1256 -107.77 803.418 1796.39 -1365.78 79.5798
45 1 33.2303 23.6688 680.002 777.127 -1196.49 -896.486 101.413
48 1 56.8226 23.6195 439.813 777.948 -284.427 -1420.28 87.7397
44 1 18.3497 26.5733 831.483 747.702 -2230.89 -1929.52 109.81
41 1 2.51274 28.8948 992.706 724.252 522.906 -910.904 120.664
97 1 173.047 33.2228 -743.878 680.094 1739.03 -2156.85 98.9699
10 1 113.104 36.1057 -133.483 650.825 -971.827 -2280.65 65.2242
98 1 133.431 36.3679 -340.626 647.998 957.505 -1871.01 71.8796
17 1 177.141 36.3241 -785.714 648.387 2108.22 331.342 100.026
5 1 49.5577 36.8442 513.616 643.18 346.761 -2016.81 80.8275
58 1 113.116 41.944 -133.491 591.469 978.568 -1816.26 59.5192
74 1 80.3343 42.1742 200.284 588.64 -1240 898.488 61.0784
86 1 117.011 43.193 -173.233 578.128 926.836 182.691 59.2995
35 1 175.718 44.9247 -771.38 560.88 1225.41 -952.929 93.6296
14 1 86.7371 46.8995 135.112 540.489 -1168.1 -270.684 54.7318
69 1 20.6368 50.4699 808.185 504.483 -1487.27 -1869.03 93.5507
22 1 73.3139 60.2477 271.203 405.676 -772.95 -1762 47.8789
20 1 43.3789 62.2726 576.742 384.317 -1044.83 -1502.62 68.039
36 1 93.9797 61.3983 61.178 394.085 -1574.34 -649.551 39.0683
99 1 192.828 62.4928 -945.19 382.099 -510.598 -902.033 100.119
89 1 82.4223 63.3358 178.65 374.209 450.911 -2035.8 40.66
46 1 143.964 63.6262 -447.69 370.27 -881.096 -1289.74 57.0602
8 1 119.335 65.7763 -196.33 349.429 815.436 1153.88 39.3076
28 1 133.866 68.1725 -344.388 325.598 452.458 411.259 46.4745
1 1 180.49 67.6203 -819.452 329.724 -674.707 -494.005 86.7585
11 1 186.717 67.686 -883.096 329.139 441.194 580.781 92.5421
70 1 167.673 69.7761 -689.094 307.941 1055.34 420.673 74.1157
72 1 158.659 78.6938 -597.281 216.903 2028.76 1327.66 62.4085
16 1 116.408 79.9173 -166.897 205.433 -961.087 -945.478 25.9332
67 1 34.9946 82.7655 661.828 175.629 -938.237 -688.843 67.2512
23 1 28.8723 89.9733 724.087 102.2 -400.108 933.852 71.8309
77 1 82.5755 88.9843 177.113 113.293 -952.208 843.149 20.6146
25 1 126.8 91.2808 -272.195 89.7093 1655 1229.06 28.1828
93 1 68.4994 97.2994 320.28 28.4938 1118.27 1399.08 31.6162
62 1 2.64527 99.6198 991.487 3.90633 -2250.87 677.243 97.3555
7 1 120.491 99.767 -208.097 3.20112 -883.333 1300.26 20.4924
39 1 134.148 100.098 -346.892 0.0541849 323.594 959.472 34.1482
9 1 26.7279 106.153 746.323 -62.5639 -427.268 -1501.83 73.53
80 1 44.0227 105.577 570.283 -56.9161 -311.901 312.809 56.2544
6 1 62.2135 105.999 383.797 -59.8697 -1169.44 -1322.92 38.2597
82 1 103.651 107.1 -37.0295 -71.0894 96.7123 443.055 7.98337
21 1 156.993 108.429 -580.473 -86.1234 -5.63137 -277.329 57.6127
51 1 104.013 113.83 -40.8191 -139.633 226.041 1116.45 14.4006
83 1 94.0764 117.28 60.1812 -174.913 -700.626 180.578 18.267
73 1 189.752 120.27 -913.984 -206.413 255.437 -288.166 92.0128
43 1 185.484 120.876 -870.617 -212.644 2319.86 1440.88 87.996
38 1 104.305 124.322 -43.9539 -246.663 551.565 641.544 24.7004
55 1 83.196 125.713 170.939 -260.744 -130.577 -831.291 30.7168
37 1 162.498 125.778 -636.404 -262.602 -1074.56 -312.932 67.6058
52 1 113.285 127.575 -135.117 -279.695 1084.05 -806.493 30.6082
50 1 173.613 128.536 -749.675 -290.53 450.233 1073.92 78.9501
65 1 107.665 135.294 -77.5231 -358.501 -1449.71 720.462 36.1168
4 1 22.7533 138.229 787.001 -389.273 -1078.26 1387.25 86.1888
76 1 48.1062 138.327 528.456 -390.48 -1668.09 -634.197 64.5132
26 1 17.4115 138.946 840.879 -396.785 -202.676 106.4 91.3106
33 1 69.0628 138.982 315.053 -397.078 -235.023 1371.87 49.7666
66 1 33.2024 142.461 680.261 -432.506 -396.101 -641.784 79.1508
19 1 102.125 141.848 -21.6263 -425.088 1246.53 -948.347 41.9016
85 1 155.281 141.833 -562.828 -425.927 875.108 -837.198 69.3252
91 1 8.9686 143.735 926.929 -445.594 637.868 1007.17 100.992
40 1 91.5472 143.027 85.8922 -437.158 -516.282 225.892 43.8497
42 1 53.2726 144.579 475.627 -454.139 -1797.87 500.843 64.5811
53 1 63.6753 145.756 369.759 -466.141 -1145.47 -650.096 58.4218
27 1 155.526 146.467 -565.345 -473.038 874.978 -1102.33 72.4035
88 1 137.671 150.957 -383.701 -519.132 1677.09 939.567 63.3699
32 1 90.2655 156.412 99.1249 -574.7 1140.87 1592.55 57.2454
31 1 56.0375 156.975 447.749 -580.179 -723.842 -1089.1 71.9644
54 1 170.699 158.117 -719.958 -591.858 1232.75 -1045.15 91.5196
79 1 82.0789 161.923 182.225 -630.612 -781.594 1636.85 64.4639
61 1 142.955 162.4 -437.538 -635.605 32.2848 -310.869 75.7555
78 1 91.3736 163.907 87.5902 -650.651 1291.23 -905.232 64.4866
63 1 100.657 167.708 -6.86819 -689.314 -530.438 138.211 67.7111
68 1 20.271 173.747 811.931 -751.002 -1003.9 2063.22 108.607
47 1 66.5109 175.16 340.989 -765.267 -1289.04 409.884 82.2835
18 1 126.571 175.809 -270.557 -772.051 851.123 -537.632 80.3305
92 1 81.2405 177.174 191.19 -785.904 -213.749 1391.44 79.4213
56 1 106.43 176.293 -65.339 -776.946 1450.82 2042.93 76.5631
57 1 138.408 176.802 -391.067 -782.262 1547.05 1197.68 85.8707
3 1 182.933 175.942 -844.5 -773.368 -567.106 1490.86 112.45
34 1 7.01146 178.348 947.038 -797.621 -46.0368 -319.406 121.595
94 1 28.9948 180.977 723.309 -824.613 -565.081 1184.93 107.698
95 1 134.536 183.962 -351.716 -855.073 -474.616 2299.94 90.7872
90 1 150.758 185.372 -516.996 -869.648 -798.128 1337.33 99.3214
2 1 188.088 184.451 -897.029 -859.93 1013.09 -487.533 122.031
96 1 111.772 186.022 -119.769 -876.158 1304.17 247.519 86.824
71 1 8.00334 188.291 936.997 -898.979 -1208.92 1652.23 127.509
29 1 151.844 193.889 -527.847 -956.032 1587.71 -612.858 107.252
ITEM: TIMESTEP
300
ITEM: NUMBER OF ATOMS
100
ITEM: BOX BOUNDS ff ff pp
0.0000000000000000e+00 2.0000000000000000e+02
0.0000000000000000e+00 2.0000000000000000e+02
-5.0000000000000000e-01 5.0000000000000000e-01
ITEM: ATOMS id type x y vx vy fx fy v_dist
24 1 12.0224 6.4055 904.212 961.605 255.569 -2486.17 128.452
49 1 182.483 8.01474 -847.704 945.699 1662.72 -1660.11 123.551
64 1 57.4342 11.1145 437.395 913.512 -1699.65 -1874.42 98.5519
81 1 15.6593 11.9052 867.082 905.455 318.858 292.065 121.959
87 1 25.7948 12.579 762.982 898.427 -1504.46 -1050.42 114.668
60 1 137.973 13.5001 -390.022 889.25 698.143 -998.136 94.4678
100 1 130.908 14.6099 -317.474 877.604 -631.358 756.62 90.8118
59 1 145.614 14.7993 -468.74 875.41 1125.45 -2377.05 96.6428
75 1 127.145 15.4737 -279.097 868.513 -1004.35 -1824.67 88.778
15 1 114.517 17.8021 -149.072 844.596 -8.81318 662.513 83.47
84 1 40.1313 18.9574 615.192 833.078 641.213 -1131.88 100.758
30 1 83.9848 21.3393 164.816 808.368 -1183.93 595.057 80.2745
12 1 92.5615 21.7898 76.5363 803.924 -398.152 -2238.08 78.5631
13 1 110.465 21.9287 -107.615 802.667 -1138.17 -517.651 78.7696
45 1 33.9099 24.4456 679.279 776.517 661.265 -2456.53 100.381
48 1 57.262 24.397 439.099 777.052 972.117 -1459.01 86.8467
44 1 19.1808 27.3207 830.633 747.144 -803.939 -587.988 108.692
41 1 3.505 29.6186 991.793 723.376 708.4 -1019.53 119.435
97 1 172.304 33.9027 -742.939 679.508 643.217 -2296.46 97.9626
10 1 112.971 36.7562 -133.493 650.121 1014.37 761.696 64.5602
98 1 133.091 37.0155 -340.131 647.226 690.562 233.557 71.148
17 1 176.355 36.9722 -784.875 647.785 1881.38 -2322.95 99.0081
5 1 50.071 37.4871 512.928 642.573 -1556.11 -1577.56 80.0048
58 1 112.983 42.5353 -133.455 591.013 -695.293 84.0005 58.9131
74 1 80.5346 42.7625 200.293 588.12 354.212 -475.83 60.4569
86 1 116.838 43.7708 -173 577.472 902.718 271.095 58.6963
35 1 174.947 45.4853 -770.574 560.347 655.304 -1534.09 92.6764
14 1 86.8722 47.4398 135.13 540.05 -1237.91 -1464.26 54.1749
69 1 21.4445 50.9742 807.298 503.882 -904.661 -611.229 92.5986
22 1 73.585 60.6533 271.003 405.456 -1184.56 -879.002 47.3911
20 1 43.9554 62.6567 576.321 383.846 -146.447 -1606.01 67.3463
36 1 94.0409 61.7921 61.1132 393.579 1218.6 -1689.67 38.6698
99 1 191.883 62.8748 -944.104 381.814 817.462 -1596.27 99.0999
89 1 82.6009 63.7099 178.495 373.914 382.42 -1397.98 40.2455
46 1 143.516 63.9962 -447.145 369.795 477.583 -346.759 56.4797
8 1 119.138 66.1256 -196.109 349.174 -34.2269 501.101 38.9069
28 1 133.522 68.498 -343.945 325.257 232.369 -863.34 46.0008
1 1 179.671 67.9498 -818.705 329.397 -69.7352 -179.261 85.8756
11 1 185.834 68.015 -882.272 328.876 1481.72 -209.88 91.6001
70 1 166.984 70.084 -688.369 307.831 687.759 -1583.84 73.3613
72 1 158.062 78.9107 -596.618 216.776 -1044.3 -1791.4 61.7734
16 1 116.241 80.1226 -166.851 205.232 778.717 1369.66 25.6686
67 1 35.6561 82.9411 661.02 175.523 67.1943 703.909 66.5669
23 1 29.596 90.0754 723.309 102.125 -1008.52 -304.51 71.1001
77 1 82.7524 89.0975 176.816 113.123 -1115.35 1466.94 20.4045
25 1 126.528 91.3706 -271.836 89.7896 -577.391 794.342 27.8964
93 1 68.8197 97.328 320.28 28.6864 170.301 430.857 31.2946
62 1 3.63623 99.6237 990.49 3.99667 -1283.33 -269.108 96.3645
7 1 120.283 99.7703 -208.107 3.24921 -1500.71 -1065.76 20.2842
39 1 133.801 100.098 -346.548 0.203945 1965.87 -1541.76 33.8015
9 1 27.4737 106.09 745.364 -62.5612 535.289 -608.568 72.7815
80 1 44.5926 105.52 569.764 -56.9128 -1197.99 -1518.68 55.6816
6 1 62.5971 105.939 383.327 -59.7789 586.915 -461.417 37.8715
82 1 103.614 107.029 -36.9753 -71.0365 1357.26 -1192.31 7.90322
21 1 156.413 108.343 -579.971 -86.038 -580.503 -959.833 57.0261
51 1 103.972 113.691 -40.8233 -139.579 1315.13 -1198.97 14.2552
83 1 94.1366 117.105 60.2348 -174.489 455.018 -1268.56 18.0822
73 1 188.839 120.064 -912.987 -206.111 284.675 638.205 91.0764
43 1 184.614 120.663 -869.713 -212.445 1068.54 1799.54 87.1003
38 1 104.261 124.076 -43.9448 -246.291 -398.037 -540.402 24.45
55 1 83.3669 125.452 170.874 -260.521 1331.62 -1225.39 30.4051
37 1 161.862 125.515 -635.545 -262.298 2192.79 1824.13 66.9177
52 1 113.15 127.295 -135.067 -279.248 983.802 1905.29 30.2978
50 1 172.863 128.246 -749.049 -290.269 567.954 -471.923 78.1464
65 1 107.587 134.936 -77.5363 -357.983 -1009.71 206.915 35.7503
4 1 23.54 137.84 786.229 -388.743 -2090.64 1983.1 85.3112
76 1 48.6344 137.937 527.899 -390.193 -1412.37 -436.931 63.8565
26 1 18.252 138.549 839.968 -396.574 -175.136 688.514 90.3812
33 1 69.3778 138.585 314.845 -396.609 363.721 207.509 49.26
66 1 33.8824 142.029 679.682 -431.928 -1854.49 -413.702 78.3451
19 1 102.103 141.423 -21.5467 -424.648 -1504.59 1257.01 41.4761
85 1 154.718 141.408 -562.321 -425.509 847.243 -826.648 68.6197
91 1 9.89506 143.29 925.962 -445.09 278.294 -760.748 99.9645
40 1 91.633 142.59 85.6479 -436.928 -1561.06 -764.026 43.4042
42 1 53.748 144.125 475.185 -453.708 -2118.17 -426.338 63.9238
53 1 64.045 145.29 369.459 -465.608 -1989.09 -763.647 57.8271
27 1 154.961 145.994 -564.851 -472.568 470.488 1578.92 71.6667
88 1 137.288 150.438 -383.292 -518.55 1461.72 1952.01 62.7247
32 1 90.3646 155.837 99.0448 -574.079 726.015 44.604 56.6626
31 1 56.485 156.395 447.252 -579.657 -104.123 1023.15 71.2318
54 1 169.979 157.525 -719.214 -591.044 1848 1550.42 90.5881
79 1 82.2611 161.293 182.083 -629.885 39.2405 1055.72 63.8079
61 1 142.518 161.765 -437.243 -634.961 1921.71 622.972 74.9842
78 1 91.4611 163.257 87.4981 -650.145 -1450.25 -41.7061 63.8303
63 1 100.65 167.019 -6.88056 -688.732 1189.7 -593.216 67.0221
68 1 21.0826 172.997 811.121 -750.235 -1886.41 772.764 107.501
47 1 66.8517 174.395 340.527 -764.451 713.725 -69.2351 81.4461
18 1 126.3 175.037 -270.186 -771.285 -401.768 1312.12 79.5128
92 1 81.4317 176.388 191.071 -785.089 -1651.56 1515.1 78.6128
56 1 106.365 175.516 -65.3137 -776.106 825.56 141.798 75.7838
57 1 138.017 176.021 -390.641 -781.192 -254.734 1276.4 84.9967
3 1 182.089 175.169 -843.755 -772.558 2484.17 1386.41 111.306
34 1 7.95802 177.551 946.011 -796.75 -181.862 1704.95 120.357
94 1 29.7178 180.153 722.617 -823.566 347.093 40.6393 106.602
95 1 134.185 183.107 -351.372 -854.206 -721.069 1317.98 89.8631
90 1 150.242 184.503 -516.54 -868.779 110.036 2168.16 98.3102
2 1 187.192 183.592 -896.066 -859.026 2007.37 1223.11 120.789
96 1 111.653 185.147 -119.752 -875.207 856.289 -305.324 85.9401
71 1 8.93986 187.392 936.006 -898.274 -1173.96 38.4975 126.211
29 1 151.316 192.934 -527.127 -955.109 2107.55 -728.22 106.16
ITEM: TIMESTEP
400
ITEM: NUMBER OF ATOMS
100
ITEM: BOX BOUNDS ff ff pp
0.0000000000000000e+00 2.0000000000000000e+02
0.0000000000000000e+00 2.0000000000000000e+02
-5.0000000000000000e-01 5.0000000000000000e-01
ITEM: ATOMS id type x y vx vy fx fy v_dist
24 1 12.9261 7.3667 903.218 960.773 -1934.01 -1701.98 127.133
49 1 181.636 8.95996 -846.952 944.751 2306.14 -1074.05 122.281
64 1 57.8713 12.0276 436.851 912.738 -512.868 -1042.17 97.5396
81 1 16.5259 12.8101 866.182 904.472 747.902 -2263.01 120.706
87 1 26.5573 13.477 762.174 897.442 -1323.7 -237.125 113.49
60 1 137.583 14.3889 -389.488 888.348 -737.121 -2401.64 93.4973
100 1 130.591 15.4871 -317.113 876.838 639.825 -2421.16 89.879
59 1 145.146 15.6743 -468.293 874.565 2145.05 -858.013 95.6503
75 1 126.866 16.3416 -278.691 867.363 -704.486 -2575.68 87.8664
15 1 114.368 18.6462 -148.965 843.719 957.435 -2110.55 82.6127
84 1 40.7462 19.7901 614.613 832.335 -1408.99 -1417.67 99.7228
30 1 84.1495 22.1472 164.707 807.471 -916.305 -1227.85 79.45
12 1 92.638 22.5933 76.4017 803.119 -771.86 -1543.84 77.756
13 1 110.357 22.731 -107.38 801.904 -772.75 -1559.63 77.9601
45 1 34.5887 25.2218 678.445 775.765 -2161.36 946.261 99.35
48 1 57.7009 25.1737 438.647 776.279 -557.42 -81.206 85.9546
44 1 20.011 28.0675 829.776 746.423 263.858 -1683.99 107.576
41 1 4.49631 30.3415 990.781 722.641 -2303.74 -54.8051 118.209
97 1 171.561 34.5818 -742.244 678.868 1765.89 -1592.23 96.9563
10 1 112.837 37.406 -133.337 649.412 95.2821 978.198 63.8969
98 1 132.751 37.6625 -339.63 646.704 -812.129 24.2296 70.4172
17 1 175.571 37.6194 -784.146 646.796 923.329 -937.987 97.9911
5 1 50.5836 38.1293 512.311 641.872 -1197.11 -1651.61 79.1831
58 1 112.849 43.1259 -133.468 590.33 -446.87 766.423 58.3075
74 1 80.7347 43.3503 199.947 587.597 598.88 613.726 59.8359
86 1 116.665 44.3479 -172.858 576.775 467.966 -806.226 58.0938
35 1 174.177 46.0453 -769.766 559.705 -165.883 -1836.5 91.7241
14 1 87.0073 47.9796 135.073 539.516 1310.71 -1592.48 53.6184
69 1 22.2515 51.4778 806.625 503.391 -1537.27 -68.4234 91.6474
22 1 73.8558 61.0586 270.669 405.044 -1224.46 317.08 46.9036
20 1 44.5315 63.0403 575.77 383.452 -780.379 23.3947 66.6542
36 1 94.102 62.1854 61.0874 393.005 649.306 305.779 38.2718
99 1 190.94 63.2564 -943.174 381.5 -239.653 -1728.56 98.082
89 1 82.7794 64.0836 178.523 373.54 243.016 -694.693 39.8313
46 1 143.07 64.3658 -446.673 369.443 146.207 139.749 55.8997
8 1 118.942 66.4747 -195.758 348.892 -475.365 -176.775 38.5066
28 1 133.178 68.8231 -343.568 325.063 1336.39 376.925 45.5276
1 1 178.852 68.279 -818.059 329.001 1086.04 -1327.37 84.9936
11 1 184.953 68.3437 -881.332 328.531 963.112 1173.31 90.6591
70 1 166.296 70.3917 -687.677 307.429 386.028 -1122.09 72.6076
72 1 157.466 79.1272 -596.203 216.267 1719.24 754.027 61.1389
16 1 116.074 80.3278 -166.629 204.961 -1145.71 689.648 25.4043
67 1 36.3167 83.1165 660.326 175.334 1040.71 99.2042 65.8833
23 1 30.319 90.1776 722.685 102.209 285.06 78.3484 70.3699
77 1 82.929 89.2106 176.528 113.112 796.166 372.386 20.1948
25 1 126.256 91.4603 -271.627 89.7924 -763.743 655.402 27.6103
93 1 69.1398 97.3565 319.943 28.275 -971.495 -1731.4 30.9732
62 1 4.62627 99.6277 989.584 4.04691 -1030.85 401.815 95.3745
7 1 120.075 99.7736 -207.73 3.35884 987.801 1132.66 20.0762
39 1 133.455 100.098 -346.224 0.302508 1309.3 960.952 33.4551
9 1 28.2187 106.027 744.636 -62.5619 441.936 36.975 72.0339
80 1 45.1621 105.463 569.209 -56.9482 -1246.15 -1540.57 55.1093
6 1 62.9802 105.879 382.891 -59.8174 -502.463 -1301.01 37.4838
82 1 103.577 106.958 -36.8638 -70.9223 1614.42 -1561.51 7.82319
21 1 155.833 108.257 -579.547 -86.1283 736.236 -1001.58 56.4401
51 1 103.931 113.551 -40.728 -139.336 440.026 125.859 14.1099
83 1 94.1969 116.931 60.2748 -174.412 -167.91 -902.205 17.8976
73 1 187.926 119.858 -911.988 -206.022 2320.68 -1108.6 90.1409
43 1 183.744 120.451 -868.911 -212.118 -515.158 289.781 86.2054
38 1 104.217 123.83 -43.9065 -245.987 60.0663 -207.677 24.2
55 1 83.5376 125.192 170.612 -260.397 -102.566 -920.219 30.0937
37 1 161.227 125.253 -634.95 -261.918 766.984 1119.7 66.2305