ITEM: TIMESTEP
0
ITEM: NUMBER OF ATOMS
1728
ITEM: BOX BOUNDS pp pp pp
0.0000000000000000e+00 1.0000000000000000e+01
0.0000000000000000e+00 1.0000000000000000e+01
0.0000000000000000e+00 1.0000000000000000e+01
ITEM: ATOMS id type xs ys zs
1 1 0 0 0
2 1 0.0839798 0.0839798 0
3 1 0.0839798 0 0.0839798
4 1 0 0.0839798 0.0839798
865 2 0.0839798 0 0
868 2 0 0.0839798 0
901 2 0 0 0.0839798
909 2 0.0839798 0.0839798 0.0839798
5 1 0.16796 0 0
6 1 0.251939 0.0839798 0
7 1 0.251939 0 0.0839798
8 1 0.16796 0.0839798 0.0839798
866 2 0.251939 0 0
869 2 0.16796 0.0839798 0
902 2 0.16796 0 0.0839798
913 2 0.251939 0.0839798 0.0839798
9 1 0.335919 0 0
10 1 0.419899 0.0839798 0
11 1 0.419899 0 0.0839798
12 1 0.335919 0.0839798 0.0839798
867 2 0.419899 0 0
871 2 0.335919 0.0839798 0
904 2 0.335919 0 0.0839798
917 2 0.419899 0.0839798 0.0839798
13 1 0 0.16796 0
14 1 0.0839798 0.251939 0
15 1 0.0839798 0.16796 0.0839798
16 1 0 0.251939 0.0839798
870 2 0.0839798 0.16796 0
874 2 0 0.251939 0
907 2 0 0.16796 0.0839798
921 2 0.0839798 0.251939 0.0839798
17 1 0.16796 0.16796 0
18 1 0.251939 0.251939 0
19 1 0.251939 0.16796 0.0839798
20 1 0.16796 0.251939 0.0839798
872 2 0.251939 0.16796 0
875 2 0.16796 0.251939 0
910 2 0.16796 0.16796 0.0839798
925 2 0.251939 0.251939 0.0839798
21 1 0.335919 0.16796 0
22 1 0.419899 0.251939 0
23 1 0.419899 0.16796 0.0839798
24 1 0.335919 0.251939 0.0839798
873 2 0.419899 0.16796 0
877 2 0.335919 0.251939 0
914 2 0.335919 0.16796 0.0839798
929 2 0.419899 0.251939 0.0839798
25 1 0 0.335919 0
26 1 0.0839798 0.419899 0
27 1 0.0839798 0.335919 0.0839798
28 1 0 0.419899 0.0839798
876 2 0.0839798 0.335919 0
880 2 0 0.419899 0
919 2 0 0.335919 0.0839798
933 2 0.0839798 0.419899 0.0839798
29 1 0.16796 0.335919 0
30 1 0.251939 0.419899 0
31 1 0.251939 0.335919 0.0839798
32 1 0.16796 0.419899 0.0839798
878 2 0.251939 0.335919 0
881 2 0.16796 0.419899 0
922 2 0.16796 0.335919 0.0839798
937 2 0.251939 0.419899 0.0839798
33 1 0.335919 0.335919 0
34 1 0.419899 0.419899 0
35 1 0.419899 0.335919 0.0839798
36 1 0.335919 0.419899 0.0839798
879 2 0.419899 0.335919 0
883 2 0.335919 0.419899 0
926 2 0.335919 0.335919 0.0839798
941 2 0.419899 0.419899 0.0839798
37 1 0 0.503879 0
39 1 0.0839798 0.503879 0.0839798
882 2 0.0839798 0.503879 0
931 2 0 0.503879 0.0839798
41 1 0.16796 0.503879 0
43 1 0.251939 0.503879 0.0839798
884 2 0.251939 0.503879 0
934 2 0.16796 0.503879 0.0839798
45 1 0.335919 0.503879 0
47 1 0.419899 0.503879 0.0839798
885 2 0.419899 0.503879 0
938 2 0.335919 0.503879 0.0839798
38 1 0.0839798 0.587859 0
40 1 0 0.587859 0.0839798
49 1 0 0.671838 0
51 1 0.0839798 0.671838 0.0839798
886 2 0 0.587859 0
888 2 0.0839798 0.671838 0
943 2 0 0.671838 0.0839798
945 2 0.0839798 0.587859 0.0839798
42 1 0.251939 0.587859 0
44 1 0.16796 0.587859 0.0839798
53 1 0.16796 0.671838 0
55 1 0.251939 0.671838 0.0839798
887 2 0.16796 0.587859 0
890 2 0.251939 0.671838 0
946 2 0.16796 0.671838 0.0839798
949 2 0.251939 0.587859 0.0839798
46 1 0.419899 0.587859 0
48 1 0.335919 0.587859 0.0839798
57 1 0.335919 0.671838 0
59 1 0.419899 0.671838 0.0839798
889 2 0.335919 0.587859 0
891 2 0.419899 0.671838 0
950 2 0.335919 0.671838 0.0839798
953 2 0.419899 0.587859 0.0839798
50 1 0.0839798 0.755818 0
52 1 0 0.755818 0.0839798
61 1 0 0.839798 0
63 1 0.0839798 0.839798 0.0839798
892 2 0 0.755818 0
894 2 0.0839798 0.839798 0
955 2 0 0.839798 0.0839798
957 2 0.0839798 0.755818 0.0839798
54 1 0.251939 0.755818 0
56 1 0.16796 0.755818 0.0839798
65 1 0.16796 0.839798 0
67 1 0.251939 0.839798 0.0839798
893 2 0.16796 0.755818 0
896 2 0.251939 0.839798 0
958 2 0.16796 0.839798 0.0839798
961 2 0.251939 0.755818 0.0839798
58 1 0.419899 0.755818 0
60 1 0.335919 0.755818 0.0839798
69 1 0.335919 0.839798 0
71 1 0.419899 0.839798 0.0839798
895 2 0.335919 0.755818 0
897 2 0.419899 0.839798 0
962 2 0.335919 0.839798 0.0839798
965 2 0.419899 0.755818 0.0839798
62 1 0.0839798 0.923778 0
64 1 0 0.923778 0.0839798
898 2 0 0.923778 0
968 2 0.0839798 0.923778 0.0839798
66 1 0.251939 0.923778 0
68 1 0.16796 0.923778 0.0839798
899 2 0.16796 0.923778 0
970 2 0.251939 0.923778 0.0839798
70 1 0.419899 0.923778 0
72 1 0.335919 0.923778 0.0839798
900 2 0.335919 0.923778 0
972 2 0.419899 0.923778 0.0839798
73 1 0 0 0.16796
74 1 0.0839798 0.0839798 0.16796
75 1 0.0839798 0 0.251939
76 1 0 0.0839798 0.251939
903 2 0.0839798 0 0.16796
908 2 0 0.0839798 0.16796
973 2 0 0 0.251939
977 2 0.0839798 0.0839798 0.251939
77 1 0.16796 0 0.16796
78 1 0.251939 0.0839798 0.16796
79 1 0.251939 0 0.251939
80 1 0.16796 0.0839798 0.251939
905 2 0.251939 0 0.16796
911 2 0.16796 0.0839798 0.16796
974 2 0.16796 0 0.251939
979 2 0.251939 0.0839798 0.251939
81 1 0.335919 0 0.16796
82 1 0.419899 0.0839798 0.16796
83 1 0.419899 0 0.251939
84 1 0.335919 0.0839798 0.251939
906 2 0.419899 0 0.16796
915 2 0.335919 0.0839798 0.16796
975 2 0.335919 0 0.251939
981 2 0.419899 0.0839798 0.251939
85 1 0 0.16796 0.16796
86 1 0.0839798 0.251939 0.16796
87 1 0.0839798 0.16796 0.251939
88 1 0 0.251939 0.251939
912 2 0.0839798 0.16796 0.16796
920 2 0 0.251939 0.16796
976 2 0 0.16796 0.251939
983 2 0.0839798 0.251939 0.251939
89 1 0.16796 0.16796 0.16796
90 1 0.251939 0.251939 0.16796
91 1 0.251939 0.16796 0.251939
92 1 0.16796 0.251939 0.251939
916 2 0.251939 0.16796 0.16796
923 2 0.16796 0.251939 0.16796
978 2 0.16796 0.16796 0.251939
985 2 0.251939 0.251939 0.251939
93 1 0.335919 0.16796 0.16796
94 1 0.419899 0.251939 0.16796
95 1 0.419899 0.16796 0.251939
96 1 0.335919 0.251939 0.251939
918 2 0.419899 0.16796 0.16796
927 2 0.335919 0.251939 0.16796
980 2 0.335919 0.16796 0.251939
987 2 0.419899 0.251939 0.251939
97 1 0 0.335919 0.16796
98 1 0.0839798 0.419899 0.16796
99 1 0.0839798 0.335919 0.251939
100 1 0 0.419899 0.251939
924 2 0.0839798 0.335919 0.16796
932 2 0 0.419899 0.16796
982 2 0 0.335919 0.251939
989 2 0.0839798 0.419899 0.251939
101 1 0.16796 0.335919 0.16796
102 1 0.251939 0.419899 0.16796
103 1 0.251939 0.335919 0.251939
104 1 0.16796 0.419899 0.251939
928 2 0.251939 0.335919 0.16796
935 2 0.16796 0.419899 0.16796
984 2 0.16796 0.335919 0.251939
991 2 0.251939 0.419899 0.251939
105 1 0.335919 0.335919 0.16796
106 1 0.419899 0.419899 0.16796
107 1 0.419899 0.335919 0.251939
108 1 0.335919 0.419899 0.251939
930 2 0.419899 0.335919 0.16796
939 2 0.335919 0.419899 0.16796
986 2 0.335919 0.335919 0.251939
993 2 0.419899 0.419899 0.251939
109 1 0 0.503879 0.16796
111 1 0.0839798 0.503879 0.251939
936 2 0.0839798 0.503879 0.16796
988 2 0 0.503879 0.251939
113 1 0.16796 0.503879 0.16796
115 1 0.251939 0.503879 0.251939
940 2 0.251939 0.503879 0.16796
990 2 0.16796 0.503879 0.251939
117 1 0.335919 0.503879 0.16796
119 1 0.419899 0.503879 0.251939
942 2 0.419899 0.503879 0.16796
992 2 0.335919 0.503879 0.251939
110 1 0.0839798 0.587859 0.16796
112 1 0 0.587859 0.251939
121 1 0 0.671838 0.16796
123 1 0.0839798 0.671838 0.251939
944 2 0 0.587859 0.16796
948 2 0.0839798 0.671838 0.16796
994 2 0 0.671838 0.251939
995 2 0.0839798 0.587859 0.251939
114 1 0.251939 0.587859 0.16796
116 1 0.16796 0.587859 0.251939
125 1 0.16796 0.671838 0.16796
127 1 0.251939 0.671838 0.251939
947 2 0.16796 0.587859 0.16796
952 2 0.251939 0.671838 0.16796
996 2 0.16796 0.671838 0.251939
997 2 0.251939 0.587859 0.251939
118 1 0.419899 0.587859 0.16796
120 1 0.335919 0.587859 0.251939
129 1 0.335919 0.671838 0.16796
131 1 0.419899 0.671838 0.251939
951 2 0.335919 0.587859 0.16796
954 2 0.419899 0.671838 0.16796
998 2 0.335919 0.671838 0.251939
999 2 0.419899 0.587859 0.251939
122 1 0.0839798 0.755818 0.16796
124 1 0 0.755818 0.251939
133 1 0 0.839798 0.16796
135 1 0.0839798 0.839798 0.251939
956 2 0 0.755818 0.16796
960 2 0.0839798 0.839798 0.16796
1000 2 0 0.839798 0.251939
1001 2 0.0839798 0.755818 0.251939
126 1 0.251939 0.755818 0.16796
128 1 0.16796 0.755818 0.251939
137 1 0.16796 0.839798 0.16796
139 1 0.251939 0.839798 0.251939
959 2 0.16796 0.755818 0.16796
964 2 0.251939 0.839798 0.16796
1002 2 0.16796 0.839798 0.251939
1003 2 0.251939 0.755818 0.251939
130 1 0.419899 0.755818 0.16796
132 1 0.335919 0.755818 0.251939
141 1 0.335919 0.839798 0.16796
143 1 0.419899 0.839798 0.251939
963 2 0.335919 0.755818 0.16796
966 2 0.419899 0.839798 0.16796
1004 2 0.335919 0.839798 0.251939
1005 2 0.419899 0.755818 0.251939
134 1 0.0839798 0.923778 0.16796
136 1 0 0.923778 0.251939
967 2 0 0.923778 0.16796
1006 2 0.0839798 0.923778 0.251939
138 1 0.251939 0.923778 0.16796
140 1 0.16796 0.923778 0.251939
969 2 0.16796 0.923778 0.16796
1007 2 0.251939 0.923778 0.251939
142 1 0.419899 0.923778 0.16796
144 1 0.335919 0.923778 0.251939
971 2 0.335919 0.923778 0.16796
1008 2 0.419899 0.923778 0.251939
145 1 0 0 0.335919
146 1 0.0839798 0.0839798 0.335919
147 1 0.0839798 0 0.419899
148 1 0 0.0839798 0.419899
1009 2 0.0839798 0 0.335919
1012 2 0 0.0839798 0.335919
1045 2 0 0 0.419899
1053 2 0.0839798 0.0839798 0.419899
149 1 0.16796 0 0.335919
150 1 0.251939 0.0839798 0.335919
151 1 0.251939 0 0.419899
152 1 0.16796 0.0839798 0.419899
1010 2 0.251939 0 0.335919
1013 2 0.16796 0.0839798 0.335919
1046 2 0.16796 0 0.419899
1057 2 0.251939 0.0839798 0.419899
153 1 0.335919 0 0.335919
154 1 0.419899 0.0839798 0.335919
155 1 0.419899 0 0.419899
156 1 0.335919 0.0839798 0.419899
1011 2 0.419899 0 0.335919
1015 2 0.335919 0.0839798 0.335919
1048 2 0.335919 0 0.419899
1061 2 0.419899 0.0839798 0.419899
157 1 0 0.16796 0.335919
158 1 0.0839798 0.251939 0.335919
159 1 0.0839798 0.16796 0.419899
160 1 0 0.251939 0.419899
1014 2 0.0839798 0.16796 0.335919
1018 2 0 0.251939 0.335919
1051 2 0 0.16796 0.419899
1065 2 0.0839798 0.251939 0.419899
161 1 0.16796 0.16796 0.335919
162 1 0.251939 0.251939 0.335919
163 1 0.251939 0.16796 0.419899
164 1 0.16796 0.251939 0.419899
1016 2 0.251939 0.16796 0.335919
1019 2 0.16796 0.251939 0.335919
1054 2 0.16796 0.16796 0.419899
1069 2 0.251939 0.251939 0.419899
165 1 0.335919 0.16796 0.335919
166 1 0.419899 0.251939 0.335919
167 1 0.419899 0.16796 0.419899
168 1 0.335919 0.251939 0.419899
1017 2 0.419899 0.16796 0.335919
1021 2 0.335919 0.251939 0.335919
1058 2 0.335919 0.16796 0.419899
1073 2 0.419899 0.251939 0.419899
169 1 0 0.335919 0.335919
170 1 0.0839798 0.419899 0.335919
171 1 0.0839798 0.335919 0.419899
172 1 0 0.419899 0.419899
1020 2 0.0839798 0.335919 0.335919
1024 2 0 0.419899 0.335919
1063 2 0 0.335919 0.419899
1077 2 0.0839798 0.419899 0.419899
173 1 0.16796 0.335919 0.335919
174 1 0.251939 0.419899 0.335919
175 1 0.251939 0.335919 0.419899
176 1 0.16796 0.419899 0.419899
1022 2 0.251939 0.335919 0.335919
1025 2 0.16796 0.419899 0.335919
1066 2 0.16796 0.335919 0.419899
1081 2 0.251939 0.419899 0.419899
177 1 0.335919 0.335919 0.335919
178 1 0.419899 0.419899 0.335919
179 1 0.419899 0.335919 0.419899
180 1 0.335919 0.419899 0.419899
1023 2 0.419899 0.335919 0.335919
1027 2 0.335919 0.419899 0.335919
1070 2 0.335919 0.335919 0.419899
1085 2 0.419899 0.419899 0.419899
181 1 0 0.503879 0.335919
183 1 0.0839798 0.503879 0.419899
1026 2 0.0839798 0.503879 0.335919
1075 2 0 0.503879 0.419899
185 1 0.16796 0.503879 0.335919
187 1 0.251939 0.503879 0.419899
1028 2 0.251939 0.503879 0.335919
1078 2 0.16796 0.503879 0.419899
189 1 0.335919 0.503879 0.335919
191 1 0.419899 0.503879 0.419899
1029 2 0.419899 0.503879 0.335919
1082 2 0.335919 0.503879 0.419899
182 1 0.0839798 0.587859 0.335919
184 1 0 0.587859 0.419899
193 1 0 0.671838 0.335919
195 1 0.0839798 0.671838 0.419899
1030 2 0 0.587859 0.335919
1032 2 0.0839798 0.671838 0.335919
1087 2 0 0.671838 0.419899
1089 2 0.0839798 0.587859 0.419899
186 1 0.251939 0.587859 0.335919
188 1 0.16796 0.587859 0.419899
197 1 0.16796 0.671838 0.335919
199 1 0.251939 0.671838 0.419899
1031 2 0.16796 0.587859 0.335919
1034 2 0.251939 0.671838 0.335919
1090 2 0.16796 0.671838 0.419899
1093 2 0.251939 0.587859 0.419899
190 1 0.419899 0.587859 0.335919
192 1 0.335919 0.587859 0.419899
201 1 0.335919 0.671838 0.335919
203 1 0.419899 0.671838 0.419899
1033 2 0.335919 0.587859 0.335919
1035 2 0.419899 0.671838 0.335919
1094 2 0.335919 0.671838 0.419899
1097 2 0.419899 0.587859 0.419899
194 1 0.0839798 0.755818 0.335919
196 1 0 0.755818 0.419899
205 1 0 0.839798 0.335919
207 1 0.0839798 0.839798 0.419899
1036 2 0 0.755818 0.335919
1038 2 0.0839798 0.839798 0.335919
1099 2 0 0.839798 0.419899
1101 2 0.0839798 0.755818 0.419899
198 1 0.251939 0.755818 0.335919
200 1 0.16796 0.755818 0.419899
209 1 0.16796 0.839798 0.335919
211 1 0.251939 0.839798 0.419899
1037 2 0.16796 0.755818 0.335919
1040 2 0.251939 0.839798 0.335919
1102 2 0.16796 0.839798 0.419899
1105 2 0.251939 0.755818 0.419899
202 1 0.419899 0.755818 0.335919
204 1 0.335919 0.755818 0.419899
213 1 0.335919 0.839798 0.335919
215 1 0.419899 0.839798 0.419899
1039 2 0.335919 0.755818 0.335919
1041 2 0.419899 0.839798 0.335919
1106 2 0.335919 0.839798 0.419899
1109 2 0.419899 0.755818 0.419899
206 1 0.0839798 0.923778 0.335919
208 1 0 0.923778 0.419899
1042 2 0 0.923778 0.335919
1112 2 0.0839798 0.923778 0.419899
210 1 0.251939 0.923778 0.335919
212 1 0.16796 0.923778 0.419899
1043 2 0.16796 0.923778 0.335919
1114 2 0.251939 0.923778 0.419899
214 1 0.419899 0.923778 0.335919
216 1 0.335919 0.923778 0.419899
1044 2 0.335919 0.923778 0.335919
1116 2 0.419899 0.923778 0.419899
217 1 0 0 0.503879
218 1 0.0839798 0.0839798 0.503879
219 1 0.0839798 0 0.587859
220 1 0 0.0839798 0.587859
1047 2 0.0839798 0 0.503879
1052 2 0 0.0839798 0.503879
1117 2 0 0 0.587859
1121 2 0.0839798 0.0839798 0.587859
221 1 0.16796 0 0.503879
222 1 0.251939 0.0839798 0.503879
223 1 0.251939 0 0.587859
224 1 0.16796 0.0839798 0.587859
1049 2 0.251939 0 0.503879
1055 2 0.16796 0.0839798 0.503879
1118 2 0.16796 0 0.587859
1123 2 0.251939 0.0839798 0.587859
225 1 0.335919 0 0.503879
226 1 0.419899 0.0839798 0.503879
227 1 0.419899 0 0.587859
228 1 0.335919 0.0839798 0.587859
1050 2 0.419899 0 0.503879
1059 2 0.335919 0.0839798 0.503879
1119 2 0.335919 0 0.587859
1125 2 0.419899 0.0839798 0.587859
229 1 0 0.16796 0.503879
230 1 0.0839798 0.251939 0.503879
231 1 0.0839798 0.16796 0.587859
232 1 0 0.251939 0.587859
1056 2 0.0839798 0.16796 0.503879
1064 2 0 0.251939 0.503879
1120 2 0 0.16796 0.587859
1127 2 0.0839798 0.251939 0.587859
233 1 0.16796 0.16796 0.503879
234 1 0.251939 0.251939 0.503879
235 1 0.251939 0.16796 0.587859
236 1 0.16796 0.251939 0.587859
1060 2 0.251939 0.16796 0.503879
1067 2 0.16796 0.251939 0.503879
1122 2 0.16796 0.16796 0.587859
1129 2 0.251939 0.251939 0.587859
237 1 0.335919 0.16796 0.503879
238 1 0.419899 0.251939 0.503879
239 1 0.419899 0.16796 0.587859
240 1 0.335919 0.251939 0.587859
1062 2 0.419899 0.16796 0.503879
1071 2 0.335919 0.251939 0.503879
1124 2 0.335919 0.16796 0.587859
1131 2 0.419899 0.251939 0.587859
241 1 0 0.335919 0.503879
242 1 0.0839798 0.419899 0.503879
243 1 0.0839798 0.335919 0.587859
244 1 0 0.419899 0.587859
1068 2 0.0839798 0.335919 0.503879
1076 2 0 0.419899 0.503879
1126 2 0 0.335919 0.587859
1133 2 0.0839798 0.419899 0.587859
245 1 0.16796 0.335919 0.503879
246 1 0.251939 0.419899 0.503879
247 1 0.251939 0.335919 0.587859
248 1 0.16796 0.419899 0.587859
1072 2 0.251939 0.335919 0.503879
1079 2 0.16796 0.419899 0.503879
1128 2 0.16796 0.335919 0.587859
1135 2 0.251939 0.419899 0.587859
249 1 0.335919 0.335919 0.503879
250 1 0.419899 0.419899 0.503879
251 1 0.419899 0.335919 0.587859
252 1 0.335919 0.419899 0.587859
1074 2 0.419899 0.335919 0.503879
1083 2 0.335919 0.419899 0.503879
1130 2 0.335919 0.335919 0.587859
1137 2 0.419899 0.419899 0.587859
253 1 0 0.503879 0.503879
255 1 0.0839798 0.503879 0.587859
1080 2 0.0839798 0.503879 0.503879
1132 2 0 0.503879 0.587859
257 1 0.16796 0.503879 0.503879
259 1 0.251939 0.503879 0.587859
1084 2 0.251939 0.503879 0.503879
1134 2 0.16796 0.503879 0.587859
261 1 0.335919 0.503879 0.503879
263 1 0.419899 0.503879 0.587859
1086 2 0.419899 0.503879 0.503879
1136 2 0.335919 0.503879 0.587859
254 1 0.0839798 0.587859 0.503879
256 1 0 0.587859 0.587859
265 1 0 0.671838 0.503879
267 1 0.0839798 0.671838 0.587859
1088 2 0 0.587859 0.503879
1092 2 0.0839798 0.671838 0.503879
1138 2 0 0.671838 0.587859
1139 2 0.0839798 0.587859 0.587859
258 1 0.251939 0.587859 0.503879
260 1 0.16796 0.587859 0.587859
269 1 0.16796 0.671838 0.503879
271 1 0.251939 0.671838 0.587859
1091 2 0.16796 0.587859 0.503879
1096 2 0.251939 0.671838 0.503879
1140 2 0.16796 0.671838 0.587859
1141 2 0.251939 0.587859 0.587859
262 1 0.419899 0.587859 0.503879
264 1 0.335919 0.587859 0.587859
273 1 0.335919 0.671838 0.503879
275 1 0.419899 0.671838 0.587859
1095 2 0.335919 0.587859 0.503879
1098 2 0.419899 0.671838 0.503879
1142 2 0.335919 0.671838 0.587859
1143 2 0.419899 0.587859 0.587859
266 1 0.0839798 0.755818 0.503879
268 1 0 0.755818 0.587859
277 1 0 0.839798 0.503879
279 1 0.0839798 0.839798 0.587859
1100 2 0 0.755818 0.503879
1104 2 0.0839798 0.839798 0.503879
1144 2 0 0.839798 0.587859
1145 2 0.0839798 0.755818 0.587859
270 1 0.251939 0.755818 0.503879
272 1 0.16796 0.755818 0.587859
281 1 0.16796 0.839798 0.503879
283 1 0.251939 0.839798 0.587859
1103 2 0.16796 0.755818 0.503879
1108 2 0.251939 0.839798 0.503879
1146 2 0.16796 0.839798 0.587859
1147 2 0.251939 0.755818 0.587859
274 1 0.419899 0.755818 0.503879
276 1 0.335919 0.755818 0.587859
285 1 0.335919 0.839798 0.503879
287 1 0.419899 0.839798 0.587859
1107 2 0.335919 0.755818 0.503879
1110 2 0.419899 0.839798 0.503879
1148 2 0.335919 0.839798 0.587859
1149 2 0.419899 0.755818 0.587859
278 1 0.0839798 0.923778 0.503879
280 1 0 0.923778 0.587859
1111 2 0 0.923778 0.503879
1150 2 0.0839798 0.923778 0.587859
282 1 0.251939 0.923778 0.503879
284 1 0.16796 0.923778 0.587859
1113 2 0.16796 0.923778 0.503879
1151 2 0.251939 0.923778 0.587859
286 1 0.419899 0.923778 0.503879
288 1 0.335919 0.923778 0.587859
1115 2 0.335919 0.923778 0.503879
1152 2 0.419899 0.923778 0.587859
289 1 0 0 0.671838
290 1 0.0839798 0.0839798 0.671838
291 1 0.0839798 0 0.755818
292 1 0 0.0839798 0.755818
1153 2 0.0839798 0 0.671838
1156 2 0 0.0839798 0.671838
1189 2 0 0 0.755818
1197 2 0.0839798 0.0839798 0.755818
293 1 0.16796 0 0.671838
294 1 0.251939 0.0839798 0.671838
295 1 0.251939 0 0.755818
296 1 0.16796 0.0839798 0.755818
1154 2 0.251939 0 0.671838
1157 2 0.16796 0.0839798 0.671838
1190 2 0.16796 0 0.755818
1201 2 0.251939 0.0839798 0.755818
297 1 0.335919 0 0.671838
298 1 0.419899 0.0839798 0.671838
299 1 0.419899 0 0.755818
300 1 0.335919 0.0839798 0.755818
1155 2 0.419899 0 0.671838
1159 2 0.335919 0.0839798 0.671838
1192 2 0.335919 0 0.755818
1205 2 0.419899 0.0839798 0.755818
301 1 0 0.16796 0.671838
302 1 0.0839798 0.251939 0.671838
303 1 0.0839798 0.16796 0.755818
304 1 0 0.251939 0.755818
1158 2 0.0839798 0.16796 0.671838
1162 2 0 0.251939 0.671838
1195 2 0 0.16796 0.755818
1209 2 0.0839798 0.251939 0.755818
305 1 0.16796 0.16796 0.671838
306 1 0.251939 0.251939 0.671838
307 1 0.251939 0.16796 0.755818
308 1 0.16796 0.251939 0.755818
1160 2 0.251939 0.16796 0.671838
1163 2 0.16796 0.251939 0.671838
1198 2 0.16796 0.16796 0.755818
1213 2 0.251939 0.251939 0.755818
309 1 0.335919 0.16796 0.671838
310 1 0.419899 0.251939 0.671838
311 1 0.419899 0.16796 0.755818
312 1 0.335919 0.251939 0.755818
1161 2 0.419899 0.16796 0.671838
1165 2 0.335919 0.251939 0.671838
1202 2 0.335919 0.16796 0.755818
1217 2 0.419899 0.251939 0.755818
313 1 0 0.335919 0.671838
314 1 0.0839798 0.419899 0.671838
315 1 0.0839798 0.335919 0.755818
316 1 0 0.419899 0.755818
1164 2 0.0839798 0.335919 0.671838
1168 2 0 0.419899 0.671838
1207 2 0 0.335919 0.755818
1221 2 0.0839798 0.419899 0.755818
317 1 0.16796 0.335919 0.671838
318 1 0.251939 0.419899 0.671838
319 1 0.251939 0.335919 0.755818
320 1 0.16796 0.419899 0.755818
1166 2 0.251939 0.335919 0.671838
1169 2 0.16796 0.419899 0.671838
1210 2 0.16796 0.335919 0.755818
1225 2 0.251939 0.419899 0.755818
321 1 0.335919 0.335919 0.671838
322 1 0.419899 0.419899 0.671838
323 1 0.419899 0.335919 0.755818
324 1 0.335919 0.419899 0.755818
1167 2 0.419899 0.335919 0.671838
1171 2 0.335919 0.419899 0.671838
1214 2 0.335919 0.335919 0.755818
1229 2 0.419899 0.419899 0.755818
325 1 0 0.503879 0.671838
327 1 0.0839798 0.503879 0.755818
1170 2 0.0839798 0.503879 0.671838
1219 2 0 0.503879 0.755818
329 1 0.16796 0.503879 0.671838
331 1 0.251939 0.503879 0.755818
1172 2 0.251939 0.503879 0.671838
1222 2 0.16796 0.503879 0.755818
333 1 0.335919 0.503879 0.671838
335 1 0.419899 0.503879 0.755818
1173 2 0.419899 0.503879 0.671838
1226 2 0.335919 0.503879 0.755818
326 1 0.0839798 0.587859 0.671838
328 1 0 0.587859 0.755818
337 1 0 0.671838 0.671838
339 1 0.0839798 0.671838 0.755818
1174 2 0 0.587859 0.671838
1176 2 0.0839798 0.671838 0.671838
1231 2 0 0.671838 0.755818
1233 2 0.0839798 0.587859 0.755818
330 1 0.251939 0.587859 0.671838
332 1 0.16796 0.587859 0.755818
341 1 0.16796 0.671838 0.671838
343 1 0.251939 0.671838 0.755818
1175 2 0.16796 0.587859 0.671838
1178 2 0.251939 0.671838 0.671838
1234 2 0.16796 0.671838 0.755818
1237 2 0.251939 0.587859 0.755818
334 1 0.419899 0.587859 0.671838
336 1 0.335919 0.587859 0.755818
345 1 0.335919 0.671838 0.671838
347 1 0.419899 0.671838 0.755818
1177 2 0.335919 0.587859 0.671838
1179 2 0.419899 0.671838 0.671838
1238 2 0.335919 0.671838 0.755818
1241 2 0.419899 0.587859 0.755818
338 1 0.0839798 0.755818 0.671838
340 1 0 0.755818 0.755818
349 1 0 0.839798 0.671838
351 1 0.0839798 0.839798 0.755818
1180 2 0 0.755818 0.671838
1182 2 0.0839798 0.839798 0.671838
1243 2 0 0.839798 0.755818
1245 2 0.0839798 0.755818 0.755818
342 1 0.251939 0.755818 0.671838
344 1 0.16796 0.755818 0.755818
353 1 0.16796 0.839798 0.671838
355 1 0.251939 0.839798 0.755818
1181 2 0.16796 0.755818 0.671838
1184 2 0.251939 0.839798 0.671838
1246 2 0.16796 0.839798 0.755818
1249 2 0.251939 0.755818 0.755818
346 1 0.419899 0.755818 0.671838
348 1 0.335919 0.755818 0.755818
357 1 0.335919 0.839798 0.671838
359 1 0.419899 0.839798 0.755818
1183 2 0.335919 0.755818 0.671838
1185 2 0.419899 0.839798 0.671838
1250 2 0.335919 0.839798 0.755818
1253 2 0.419899 0.755818 0.755818
350 1 0.0839798 0.923778 0.671838
352 1 0 0.923778 0.755818
1186 2 0 0.923778 0.671838
1256 2 0.0839798 0.923778 0.755818
354 1 0.251939 0.923778 0.671838
356 1 0.16796 0.923778 0.755818
1187 2 0.16796 0.923778 0.671838
1258 2 0.251939 0.923778 0.755818
358 1 0.419899 0.923778 0.671838
360 1 0.335919 0.923778 0.755818
1188 2 0.335919 0.923778 0.671838
1260 2 0.419899 0.923778 0.755818
361 1 0 0 0.839798
362 1 0.0839798 0.0839798 0.839798
363 1 0.0839798 0 0.923778
364 1 0 0.0839798 0.923778
1191 2 0.0839798 0 0.839798
1196 2 0 0.0839798 0.839798
1261 2 0 0 0.923778
1265 2 0.0839798 0.0839798 0.923778
365 1 0.16796 0 0.839798
366 1 0.251939 0.0839798 0.839798
367 1 0.251939 0 0.923778
368 1 0.16796 0.0839798 0.923778
1193 2 0.251939 0 0.839798
1199 2 0.16796 0.0839798 0.839798
1262 2 0.16796 0 0.923778
1267 2 0.251939 0.0839798 0.923778
369 1 0.335919 0 0.839798
370 1 0.419899 0.0839798 0.839798
371 1 0.419899 0 0.923778
372 1 0.335919 0.0839798 0.923778
1194 2 0.419899 0 0.839798
1203 2 0.335919 0.0839798 0.839798
1263 2 0.335919 0 0.923778
1269 2 0.419899 0.0839798 0.923778
373 1 0 0.16796 0.839798
374 1 0.0839798 0.251939 0.839798
375 1 0.0839798 0.16796 0.923778
376 1 0 0.251939 0.923778
1200 2 0.0839798 0.16796 0.839798
1208 2 0 0.251939 0.839798
1264 2 0 0.16796 0.923778
1271 2 0.0839798 0.251939 0.923778
377 1 0.16796 0.16796 0.839798
378 1 0.251939 0.251939 0.839798
379 1 0.251939 0.16796 0.923778
380 1 0.16796 0.251939 0.923778
1204 2 0.251939 0.16796 0.839798
1211 2 0.16796 0.251939 0.839798
1266 2 0.16796 0.16796 0.923778
1273 2 0.251939 0.251939 0.923778
381 1 0.335919 0.16796 0.839798
382 1 0.419899 0.251939 0.839798
383 1 0.419899 0.16796 0.923778
384 1 0.335919 0.251939 0.923778
1206 2 0.419899 0.16796 0.839798
1215 2 0.335919 0.251939 0.839798
1268 2 0.335919 0.16796 0.923778
1275 2 0.419899 0.251939 0.923778
385 1 0 0.335919 0.839798
386 1 0.0839798 0.419899 0.839798
387 1 0.0839798 0.335919 0.923778
388 1 0 0.419899 0.923778
1212 2 0.0839798 0.335919 0.839798
1220 2 0 0.419899 0.839798
1270 2 0 0.335919 0.923778
1277 2 0.0839798 0.419899 0.923778
389 1 0.16796 0.335919 0.839798
390 1 0.251939 0.419899 0.839798
391 1 0.251939 0.335919 0.923778
392 1 0.16796 0.419899 0.923778
1216 2 0.251939 0.335919 0.839798
1223 2 0.16796 0.419899 0.839798
1272 2 0.16796 0.335919 0.923778
1279 2 0.251939 0.419899 0.923778
393 1 0.335919 0.335919 0.839798
394 1 0.419899 0.419899 0.839798
395 1 0.419899 0.335919 0.923778
396 1 0.335919 0.419899 0.923778
1218 2 0.419899 0.335919 0.839798
1227 2 0.335919 0.419899 0.839798
1274 2 0.335919 0.335919 0.923778
1281 2 0.419899 0.419899 0.923778
397 1 0 0.503879 0.839798
399 1 0.0839798 0.503879 0.923778
1224 2 0.0839798 0.503879 0.839798
1276 2 0 0.503879 0.923778
401 1 0.16796 0.503879 0.839798
403 1 0.251939 0.503879 0.923778
1228 2 0.251939 0.503879 0.839798
1278 2 0.16796 0.503879 0.923778
405 1 0.335919 0.503879 0.839798
407 1 0.419899 0.503879 0.923778
1230 2 0.419899 0.503879 0.839798
1280 2 0.335919 0.503879 0.923778
398 1 0.0839798 0.587859 0.839798
400 1 0 0.587859 0.923778
409 1 0 0.671838 0.839798
411 1 0.0839798 0.671838 0.923778
1232 2 0 0.587859 0.839798
1236 2 0.0839798 0.671838 0.839798
1282 2 0 0.671838 0.923778
1283 2 0.0839798 0.587859 0.923778
402 1 0.251939 0.587859 0.839798
404 1 0.16796 0.587859 0.923778
413 1 0.16796 0.671838 0.839798
415 1 0.251939 0.671838 0.923778
1235 2 0.16796 0.587859 0.839798
1240 2 0.251939 0.671838 0.839798
1284 2 0.16796 0.671838 0.923778
1285 2 0.251939 0.587859 0.923778
406 1 0.419899 0.587859 0.839798
408 1 0.335919 0.587859 0.923778
417 1 0.335919 0.671838 0.839798
419 1 0.419899 0.671838 0.923778
1239 2 0.335919 0.587859 0.839798
1242 2 0.419899 0.671838 0.839798
1286 2 0.335919 0.671838 0.923778
1287 2 0.419899 0.587859 0.923778
410 1 0.0839798 0.755818 0.839798
412 1 0 0.755818 0.923778
421 1 0 0.839798 0.839798
423 1 0.0839798 0.839798 0.923778
1244 2 0 0.755818 0.839798
1248 2 0.0839798 0.839798 0.839798
1288 2 0 0.839798 0.923778
1289 2 0.0839798 0.755818 0.923778
414 1 0.251939 0.755818 0.839798
416 1 0.16796 0.755818 0.923778
425 1 0.16796 0.839798 0.839798
427 1 0.251939 0.839798 0.923778
1247 2 0.16796 0.755818 0.839798
1252 2 0.251939 0.839798 0.839798
1290 2 0.16796 0.839798 0.923778
1291 2 0.251939 0.755818 0.923778
418 1 0.419899 0.755818 0.839798
420 1 0.335919 0.755818 0.923778
429 1 0.335919 0.839798 0.839798
431 1 0.419899 0.839798 0.923778
1251 2 0.335919 0.755818 0.839798
1254 2 0.419899 0.839798 0.839798
1292 2 0.335919 0.839798 0.923778
1293 2 0.419899 0.755818 0.923778
422 1 0.0839798 0.923778 0.839798
424 1 0 0.923778 0.923778
1255 2 0 0.923778 0.839798
1294 2 0.0839798 0.923778 0.923778
426 1 0.251939 0.923778 0.839798
428 1 0.16796 0.923778 0.923778
1257 2 0.16796 0.923778 0.839798
1295 2 0.251939 0.923778 0.923778
430 1 0.419899 0.923778 0.839798
432 1 0.335919 0.923778 0.923778
1259 2 0.335919 0.923778 0.839798
1296 2 0.419899 0.923778 0.923778
433 1 0.503879 0 0
434 1 0.587859 0.0839798 0
435 1 0.587859 0 0.0839798
436 1 0.503879 0.0839798 0.0839798
1297 2 0.587859 0 0
1300 2 0.503879 0.0839798 0
1333 2 0.503879 0 0.0839798
1341 2 0.587859 0.0839798 0.0839798
437 1 0.671838 0 0
438 1 0.755818 0.0839798 0
439 1 0.755818 0 0.0839798
440 1 0.671838 0.0839798 0.0839798
1298 2 0.755818 0 0
1301 2 0.671838 0.0839798 0
1334 2 0.671838 0 0.0839798
1345 2 0.755818 0.0839798 0.0839798
441 1 0.839798 0 0
442 1 0.923778 0.0839798 0
443 1 0.923778 0 0.0839798
444 1 0.839798 0.0839798 0.0839798
1299 2 0.923778 0 0
1303 2 0.839798 0.0839798 0
1336 2 0.839798 0 0.0839798
1349 2 0.923778 0.0839798 0.0839798
445 1 0.503879 0.16796 0
446 1 0.587859 0.251939 0
447 1 0.587859 0.16796 0.0839798
448 1 0.503879 0.251939 0.0839798
1302 2 0.587859 0.16796 0
1306 2 0.503879 0.251939 0
1339 2 0.503879 0.16796 0.0839798
1353 2 0.587859 0.251939 0.0839798
449 1 0.671838 0.16796 0
450 1 0.755818 0.251939 0
451 1 0.755818 0.16796 0.0839798
452 1 0.671838 0.251939 0.0839798
1304 2 0.755818 0.16796 0
1307 2 0.671838 0.251939 0
1342 2 0.671838 0.16796 0.0839798
1357 2 0.755818 0.251939 0.0839798
453 1 0.839798 0.16796 0
454 1 0.923778 0.251939 0
455 1 0.923778 0.16796 0.0839798
456 1 0.839798 0.251939 0.0839798
1305 2 0.923778 0.16796 0
1309 2 0.839798 0.251939 0
1346 2 0.839798 0.16796 0.0839798
1361 2 0.923778 0.251939 0.0839798
457 1 0.503879 0.335919 0
458 1 0.587859 0.419899 0
459 1 0.587859 0.335919 0.0839798
460 1 0.503879 0.419899 0.0839798
1308 2 0.587859 0.335919 0
1312 2 0.503879 0.419899 0
1351 2 0.503879 0.335919 0.0839798
1365 2 0.587859 0.419899 0.0839798
461 1 0.671838 0.335919 0
462 1 0.755818 0.419899 0
463 1 0.755818 0.335919 0.0839798
464 1 0.671838 0.419899 0.0839798
1310 2 0.755818 0.335919 0
1313 2 0.671838 0.419899 0
1354 2 0.671838 0.335919 0.0839798
1369 2 0.755818 0.419899 0.0839798
465 1 0.839798 0.335919 0
466 1 0.923778 0.419899 0
467 1 0.923778 0.335919 0.0839798
468 1 0.839798 0.419899 0.0839798
1311 2 0.923778 0.335919 0
1315 2 0.839798 0.419899 0
1358 2 0.839798 0.335919 0.0839798
1373 2 0.923778 0.419899 0.0839798
469 1 0.503879 0.503879 0
471 1 0.587859 0.503879 0.0839798
1314 2 0.587859 0.503879 0
1363 2 0.503879 0.503879 0.0839798
473 1 0.671838 0.503879 0
475 1 0.755818 0.503879 0.0839798
1316 2 0.755818 0.503879 0
1366 2 0.671838 0.503879 0.0839798
477 1 0.839798 0.503879 0
479 1 0.923778 0.503879 0.0839798
1317 2 0.923778 0.503879 0
1370 2 0.839798 0.503879 0.0839798
470 1 0.587859 0.587859 0
472 1 0.503879 0.587859 0.0839798
481 1 0.503879 0.671838 0
483 1 0.587859 0.671838 0.0839798
1318 2 0.503879 0.587859 0
1320 2 0.587859 0.671838 0
1375 2 0.503879 0.671838 0.0839798
1377 2 0.587859 0.587859 0.0839798
474 1 0.755818 0.587859 0
476 1 0.671838 0.587859 0.0839798
485 1 0.671838 0.671838 0
487 1 0.755818 0.671838 0.0839798
1319 2 0.671838 0.587859 0
1322 2 0.755818 0.671838 0
1378 2 0.671838 0.671838 0.0839798
1381 2 0.755818 0.587859 0.0839798
478 1 0.923778 0.587859 0
480 1 0.839798 0.587859 0.0839798
489 1 0.839798 0.671838 0