ITEM: TIMESTEP
0
ITEM: NUMBER OF ATOMS
21960
ITEM: BOX BOUNDS pp pp pp
0.0000000000000000e+00 8.0000000000000000e+02
0.0000000000000000e+00 8.0000000000000000e+02
-5.0000000000000000e-01 5.0000000000000000e-01
ITEM: ATOMS id type x y z
7592 1 3.57004 1.66761 0
16046 2 6.18822 5.35364 0
17596 2 1.19028 4.98873 0
2336 1 13.0902 6.20222 0
7201 1 14.3274 0.815254 0
8649 1 21.4675 4.27569 0
1094 1 25.0848 0.232127 0
21603 2 25.0852 6.68105 0
11309 2 38.5079 1.76244 0
11840 2 31.6537 4.11221 0
12012 2 43.0774 2.09303 0
6102 1 46.8856 7.10504 0
12651 2 50.503 3.13661 0
4162 1 57.5477 4.33264 0
8719 1 61.7365 5.54824 0
16997 2 68.8763 4.27529 0
18259 2 65.1159 2.22998 0
12664 2 73.1127 4.88251 0
15458 2 76.5873 2.01919 0
10118 1 84.6316 3.60002 0
14955 2 82.4423 7.35518 0
21063 2 80.0621 4.00197 0
10283 1 88.2967 1.83443 0
13716 2 88.1541 5.97618 0
14956 2 92.6281 0.99948 0
2446 1 99.5776 1.09568 0
8837 1 94.0563 4.9248 0
2459 1 102.529 6.21436 0
16308 2 106.813 5.3116 0
21317 2 104.338 1.34691 0
2067 1 112.429 1.40523 0
2822 1 116.904 2.42039 0
11583 2 117.618 7.55117 0
18686 2 121.093 4.42489 0
5601 1 125.519 4.40803 0
8564 1 129.422 0.333078 0
18294 2 131.612 4.39176 0
10176 1 135.372 2.91207 0
2145 1 144.94 0.289194 0
11318 2 146.415 4.96479 0
18006 2 141.751 6.57725 0
11565 2 153.508 1.52656 0
18880 2 148.986 1.16986 0
20109 2 151.556 5.34531 0
9709 1 157.125 6.17339 0
10104 1 162.361 1.39266 0
14953 2 162.932 5.3996 0
13449 2 167.264 3.49401 0
1326 1 175.784 1.7584 0
4984 1 173.214 6.91825 0
11907 2 171.405 2.37527 0
209 1 184.447 6.25568 0
21871 2 180.877 4.51294 0
7590 1 187.827 2.44906 0
19011 2 191.302 7.01141 0
6087 1 194.729 2.54631 0
6457 1 198.632 4.07504 0
1877 1 209.627 2.56625 0
5573 1 203.868 2.27459 0
19907 2 204.344 7.76127 0
16045 2 214.863 2.01176 0
21380 2 213.197 6.46907 0
7118 1 223.526 1.4626 0
9759 1 219.29 3.76679 0
13919 2 225.859 5.63081 0
12288 2 233.236 5.72375 0
1884 1 241.614 2.41353 0
12551 2 248.182 0.245396 0
16389 2 245.517 3.09701 0
13404 2 249.611 4.70917 0
18709 2 255.322 1.65846 0
6437 1 256.513 7.57382 0
10400 1 260.225 2.89577 0
7917 1 267.08 7.61477 0
16579 2 265.175 3.51845 0
5886 1 271.935 3.44356 0
7511 1 276.599 7.69774 0
2636 1 280.074 5.10992 0
14449 2 280.502 1.12462 0
10925 1 290.927 2.75279 0
17438 2 287.547 5.62651 0
7408 1 298.638 3.73994 0
4288 1 303.445 5.38008 0
11414 2 308.919 1.08243 0
1263 1 315.631 4.70891 0
7484 1 311.728 5.54687 0
18752 2 314.44 0.941097 0
2353 1 325.389 4.96191 0
18035 2 320.866 2.69558 0
15402 2 329.149 1.02161 0
20840 2 333.052 3.33298 0
6934 1 338.192 0.157203 0
7843 1 337.336 4.3962 0
1212 1 349.235 0.38794 0
11171 2 342.81 6.71027 0
21107 2 347.903 5.15717 0
4208 1 351.997 5.77382 0
9115 1 356.661 6.29639 0
12115 2 356.233 2.02957 0
10401 1 361.945 4.58254 0
7849 1 368.18 3.02913 0
17588 2 367.228 7.43303 0
15801 2 374.606 3.93837 0
13273 2 381.27 4.20995 0
14031 2 385.316 2.39835 0
6001 1 394.693 6.5542 0
7467 1 394.455 2.0515 0
4603 1 399.548 0.798935 0
11209 2 404.879 1.3255 0
18656 2 408.306 5.01861 0
236 1 412.352 6.25616 0
6454 1 416.969 2.14032 0
12843 2 412.59 1.06043 0
7782 1 421.301 4.65506 0
12069 2 425.252 4.32945 0
4447 1 429.393 5.21426 0
14301 2 433.343 3.28581 0
20851 2 427.631 0.144299 0
20540 2 438.96 1.26403 0
2190 1 445.577 6.97757 0
5752 1 442.958 3.10371 0
7454 1 449.051 2.77438 0
10709 1 456.382 6.53113 0
8835 1 465.949 2.73116 0
17411 2 462.093 1.62087 0
20327 2 460.428 7.49945 0
9693 1 468.186 7.28341 0
19341 2 472.613 3.40346 0
2489 1 480.324 1.67329 0
12073 2 475.897 5.52194 0
2124 1 481.704 5.68106 0
16879 2 487.75 7.02451 0
8510 1 492.652 3.39695 0
15358 2 502.981 7.3501 0
19554 2 499.078 6.19078 0
1136 1 511.406 0.0254568 0
4599 1 510.692 4.11728 0
12995 2 507.027 2.53944 0
14051 2 506.884 7.01303 0
8531 1 519.593 4.25781 0
13623 2 515.69 2.72282 0
18135 2 527.542 4.93289 0
20137 2 522.401 1.19015 0
7340 1 531.35 2.74464 0
5134 1 540.965 7.08304 0
5771 1 537.919 4.61492 0
15642 2 535.967 0.463299 0
18789 2 540.775 0.575731 0
16496 2 550.533 3.59614 0
2839 1 556.102 3.0906 0
12779 2 554.341 6.62964 0
1186 1 560.576 5.78374 0
3546 1 565.86 2.31052 0
16988 2 561.052 0.95213 0
18475 2 574.475 4.95557 0
19503 2 569.477 3.82055 0
8035 1 578.474 4.24072 0
13222 2 580.996 7.63459 0
7032 1 586.47 7.61327 0
9865 1 588.517 1.36935 0
15274 2 584.614 0.316467 0
8996 1 593.61 3.08455 0
4844 1 598.941 7.01715 0
6110 1 604.034 1.66357 0
10234 1 604.653 6.87159 0
6384 1 608.984 1.03402 0
8043 1 616.267 1.45466 0
8823 1 613.935 6.21477 0
13145 2 619.314 6.99699 0
20756 2 620.979 0.911792 0
4139 1 624.788 3.97034 0
4383 1 633.403 6.99732 0
18391 2 630.785 3.69322 0
6862 1 638.924 2.36052 0
9651 1 644.065 7.69357 0
4645 1 646.873 1.43901 0
11126 2 650.824 3.4801 0
11524 2 655.917 5.25164 0
7361 1 660.535 7.74752 0
18892 2 663.676 5.15457 0
19644 2 665.294 0.472913 0
2339 1 670.15 7.69689 0
7586 1 673.291 0.0387173 0
8710 1 673.291 5.2229 0
9371 1 676.814 7.59281 0
10922 1 679.812 2.9807 0
5233 1 684.477 0.604384 0
6023 1 684.096 5.60293 0
9544 1 689.998 0.456787 0
9705 1 697.614 6.79303 0
11864 2 693.759 1.58172 0
501 1 705.897 2.92767 0
1347 1 701.85 0.757219 0
5556 1 701.898 7.29275 0
11399 2 707.706 7.02611 0
16784 2 710.847 3.32495 0
7831 1 715.464 3.91119 0
10644 1 722.175 1.07621 0
20346 2 718.653 6.82068 0
8961 1 727.411 0.139793 0
16384 2 727.888 7.19174 0
20020 2 724.175 4.56936 0
20865 2 733.218 0.705883 0
1269 1 738.121 5.37428 0
10947 1 740.549 2.0208 0
13980 2 744.166 5.92256 0
781 1 750.116 0.0115123 0
873 1 748.688 6.71127 0
19657 2 753.115 7.37687 0
9653 1 758.399 3.79722 0
274 1 762.064 2.36973 0
20190 2 766.586 3.79081 0
15772 2 770.536 2.91422 0
4282 1 778.723 4.14752 0
18502 2 783.674 7.29967 0
3248 1 784.483 1.35245 0
7682 1 788.529 6.84129 0
19952 2 788.433 1.59034 0
5311 1 793.003 0.368182 0
11348 2 796.621 3.62505 0
6642 1 7.75952 14.3347 0
17917 2 1.66657 9.98078 0
20789 2 5.95048 9.67281 0
19871 2 9.9012 9.4599 0
19915 2 12.5195 14.7738 0
10658 1 20.7063 10.8104 0
15938 2 15.9464 11.7049 0
2522 1 30.1308 9.03594 0
4564 1 26.1326 10.9279 0
17931 2 29.8931 13.3802 0
24 1 37.2234 14.0627 0
5548 1 34.8432 9.2444 0
4882 1 40.6027 9.50475 0
19068 2 46.0767 10.9297 0
10927 1 52.0267 12.4444 0
18898 2 50.9792 8.07857 0
10163 1 54.9776 7.87086 0
12882 2 60.4516 9.67778 0
15884 2 59.4523 14.0514 0
16287 2 68.6865 13.9717 0
17043 2 64.9259 9.77257 0
1901 1 76.8258 11.7061 0
12472 2 73.3034 9.47392 0
17663 2 82.3951 14.3687 0
748 1 90.1538 14.5158 0
2676 1 85.7269 11.1767 0
17526 2 93.1047 11.4136 0
10315 1 97.4361 8.05547 0
2248 1 101.244 12.4476 0
6782 1 106.337 10.5377 0
3062 1 114.048 10.2601 0
17544 2 111.478 14.9503 0
5023 1 123.854 10.4494 0
6235 1 118.999 12.4918 0
18955 2 128.042 9.93693 0
11090 2 133.85 10.071 0
13671 2 137.753 8.4191 0
16082 2 134.849 14.5631 0
2087 1 147.225 9.94944 0
3026 1 145.321 13.5605 0
9864 1 139.847 13.3627 0
13696 2 152.318 13.1861 0
21597 2 154.27 8.94783 0
15612 2 159.887 14.1827 0
15732 2 155.841 14.9674 0
19664 2 161.933 10.4495 0
2147 1 165.122 13.0772 0
8913 1 168.407 10.1492 0
12498 2 171.406 13.5075 0
14138 2 177.308 8.8372 0
5593 1 186.066 13.1132 0
21156 2 180.64 11.5307 0
17683 2 192.206 13.5905 0
21248 2 187.779 9.00548 0
3195 1 198.394 10.1348 0
10534 1 204.011 12.333 0
445 1 216.149 9.14593 0
10805 1 210.675 9.54291 0
15210 2 215.482 13.9692 0
3949 1 220.29 10.325 0
8578 1 225.05 12.7113 0
3308 1 230.143 14.6206 0
13114 2 236.855 13.9269 0
18357 2 234.855 10.2522 0
1867 1 248.135 9.7821 0
5893 1 241.043 9.42611 0
13497 2 244.708 7.77322 0
18122 2 242.662 13.4849 0
12858 2 249.04 14.1886 0
14664 2 252.61 12.4502 0
5780 1 260.321 10.7075 0
4631 1 265.462 12.9601 0
10545 1 272.221 12.209 0
14946 2 277.885 11.6325 0
8223 1 281.978 9.09981 0
19353 2 282.978 13.8611 0
19744 2 286.976 13.1901 0
5313 1 292.498 13.4244 0
12687 2 296.496 10.2302 0
19293 2 301.78 14.0887 0
286 1 306.587 13.4873 0
17565 2 305.445 8.73548 0
399 1 312.537 9.6988 0
249 1 324.913 10.1191 0
586 1 319.82 12.8555 0
4155 1 327.864 13.8979 0
10848 1 331.862 8.70011 0
6011 1 338.479 12.5478 0
7132 1 334.576 12.6532 0
20448 2 347.427 10.3206 0
17709 2 353.901 9.59465 0
3984 1 364.706 11.8342 0
5537 1 360.137 15.2415 0
21897 2 359.042 10.7703 0
14699 2 369.847 12.1647 0
6126 1 375.225 9.62223 0
8029 1 380.223 13.4495 0
19507 2 379.223 9.22043 0
9268 1 383.555 10.4892 0
4029 1 394.265 12.8499 0
9470 1 389.79 7.92776 0
4908 1 401.5 8.41294 0
14273 2 403.69 13.1102 0
6068 1 409.687 12.6891 0
13472 2 414.399 10.5184 0
20401 2 419.159 7.94585 0
8383 1 425.776 11.6433 0
12087 2 419.969 14.0638 0
12854 2 434.677 8.51555 0
4104 1 440.436 12.0442 0
4945 1 436.581 14.7469 0
21102 2 440.864 8.05889 0
15277 2 450.385 12.6373 0
4951 1 453.431 15.4436 0
14846 2 450.908 7.77336 0
17974 2 458.096 11.2327 0
4476 1 462.76 12.0433 0
2994 1 470.995 14.4652 0
13730 2 467.092 14.9149 0
5279 1 477.706 9.16958 0
5658 1 473.851 10.2131 0
16161 2 477.516 14.0512 0
6946 1 485.846 10.5229 0
16154 2 482.038 14.9276 0
17440 2 486.893 14.9325 0
6925 1 492.272 8.10749 0
11218 2 495.413 12.2264 0
3942 1 504.552 13.2069 0
16781 2 509.598 10.866 0
10462 1 515.738 14.8746 0
20943 2 514.929 10.2405 0
3342 1 522.592 9.269 0
5332 1 521.736 13.652 0
13832 2 525.924 12.1691 0
4239 1 530.303 9.64257 0
14225 2 530.399 13.9731 0
4276 1 536.967 8.73706 0
7447 1 536.111 14.9984 0
14502 2 540.157 12.592 0
9379 1 548.867 8.96757 0
20662 2 544.06 10.5018 0
20798 2 547.297 13.1222 0
9600 1 558.054 11.4058 0
20563 2 552.913 11.1255 0
14463 2 564.622 10.2645 0
18045 2 563.147 14.8616 0
14992 2 569.43 11.0093 0
11281 2 574.952 11.3689 0
17129 2 580.568 13.6047 0
6941 1 589.279 13.2548 0
16290 2 585.185 11.8931 0
12133 2 592.373 9.51712 0
12177 2 596.847 11.9035 0
21144 2 601.798 11.0235 0
14674 2 608.319 12.6068 0
21745 2 608.556 8.39406 0
12445 2 617.172 11.4899 0
1277 1 626.216 10.7695 0
2235 1 634.736 13.8362 0
12624 2 630.548 13.0463 0
6083 1 638.068 8.86603 0
10134 1 640.448 13.7282 0
6547 1 646.636 11.2805 0
8847 1 651.301 8.34066 0
1087 1 652.776 13.179 0
11975 2 657.774 10.8642 0
10005 1 664.629 13.8927 0
3298 1 670.055 14.0665 0
9883 1 676.719 12.009 0
16975 2 680.289 14.3528 0
4427 1 684.382 12.4713 0
15960 2 689.999 7.77601 0
8918 1 697.044 11.4013 0
4749 1 704.945 11.2948 0
5477 1 713.799 13.0894 0
10781 1 713.275 8.93109 0
7655 1 720.748 14.7571 0
6107 1 722.842 8.49334 0
11195 2 730.03 13.9375 0
16387 2 724.556 12.7003 0
6518 1 736.266 14.7069 0
9937 1 733.743 10.9938 0
180 1 745.166 10.5085 0
723 1 739.645 11.8082 0
1201 1 749.117 11.479 0
14136 2 753.401 12.0476 0
661 1 761.588 11.5152 0
9375 1 767.205 8.35394 0
2205 1 774.107 9.00217 0
2748 1 769.347 15.1373 0
13478 2 779.105 13.9565 0
21304 2 788.72 11.1322 0
11891 2 797.478 11.6828 0
13513 2 792.909 14.3576 0
15845 2 793.908 9.94637 0
9199 1 1.95264 18.0012 0
19587 2 3.85689 22.7612 0
9468 1 15.5184 17.5686 0
14701 2 8.99752 21.2696 0
1615 1 21.04 18.6607 0
13969 2 25.3717 22.1146 0
616 1 32.7969 16.6717 0
10422 1 31.2264 22.7109 0
14543 2 38.6519 22.233 0
8553 1 44.7918 16.2301 0
12116 2 40.4128 17.4167 0
14000 2 51.7417 22.1241 0
15943 2 53.4073 16.2142 0
20914 2 48.8855 18.8253 0
4995 1 56.4063 21.4696 0
2417 1 63.4986 21.4687 0
4901 1 69.2579 17.9035 0
16518 2 65.3548 17.8587 0
7134 1 77.0644 20.6229 0
9157 1 74.2557 15.5949 0
1316 1 78.9205 16.4619 0
18984 2 81.2055 20.3744 0
11196 2 88.1074 21.2418 0
14446 2 92.772 18.1955 0
16447 2 87.06 17.4207 0
6942 1 97.6746 16.2585 0
6348 1 107.575 20.3777 0
9512 1 102.482 20.0712 0
8241 1 115.715 17.8804 0
20637 2 111.336 22.0411 0
6809 1 124.235 16.1636 0
12171 2 121.998 21.435 0
5342 1 128.376 21.2308 0
11753 2 128.662 15.6646 0
2669 1 135.992 21.7255 0
20396 2 137.753 17.9735 0
20577 2 132.232 19.3921 0
4768 1 143.37 17.3104 0
13534 2 145.702 21.7792 0
21772 2 140.467 22.4338 0
5414 1 154.604 22.7775 0
7426 1 152.176 18.9432 0
14510 2 159.459 20.9416 0
4369 1 164.647 17.4893 0
18917 2 168.407 19.7663 0
1887 1 172.263 18.9482 0
15606 2 176.785 21.3147 0
2555 1 185.4 20.4598 0
9682 1 180.402 15.6119 0
8734 1 191.683 18.323 0
20830 2 187.161 16.8644 0
2008 1 198.585 22.7404 0
8421 1 197.014 17.9918 0
13703 2 206.677 20.0626 0
18957 2 202.488 19.517 0
20567 2 208.152 15.9664 0
2438 1 212.056 17.8646 0
1026 1 217.72 21.8649 0
9810 1 219.909 15.8683 0
15149 2 221.385 19.9553 0
607 1 226.573 17.7991 0
9646 1 226.098 21.9294 0
16889 2 232.857 21.9422 0
20858 2 232.761 17.7306 0
19004 2 240.187 18.9557 0
6472 1 247.041 19.9055 0
2099 1 250.373 22.4863 0
14408 2 252.848 18.4368 0
10416 1 259.797 15.6028 0
3744 1 271.84 21.7656 0
4198 1 267.842 21.4662 0
9594 1 264.082 19.2957 0
5617 1 278.647 16.3678 0
17906 2 272.983 16.913 0
19246 2 275.553 20.0867 0
794 1 282.598 22.6601 0
11984 2 282.026 18.3213 0
21841 2 287.024 17.8535 0
4350 1 290.975 20.6772 0
3737 1 296.497 17.9689 0
9927 1 303.494 17.9701 0
14879 2 309.634 20.6262 0
2558 1 312.68 17.2152 0
20854 2 318.059 17.4339 0
369 1 320.487 21.3997 0
6434 1 324.866 17.5583 0
4055 1 332.482 22.2729 0
4357 1 337.575 22.3916 0
5201 1 340.954 18.9669 0
12338 2 334.766 18.0837 0
1823 1 344.762 16.1588 0
6503 1 349.332 18.7308 0
1279 1 352.14 21.4923 0
13206 2 352.664 16.1587 0
2870 1 359.994 20.0094 0
17590 2 364.468 16.3788 0
11045 2 366.991 19.397 0
18640 2 370.99 21.0175 0
5404 1 374.131 18.1867 0
18528 2 378.7 18.367 0
10647 1 381.128 22.602 0
12969 2 384.603 20.5902 0
19917 2 382.651 16.5074 0
20965 2 388.22 18.2747 0
344 1 391.457 15.905 0
4271 1 389.125 23.2384 0
1885 1 397.788 20.8109 0
18862 2 399.263 17.0716 0
20518 2 402.072 20.7534 0
3713 1 407.926 20.492 0
16811 2 412.972 16.3103 0
15641 2 425.205 18.1738 0
19592 2 420.493 19.1424 0
9217 1 430.107 15.5981 0
9940 1 430.917 20.8395 0
13621 2 435.915 19.7706 0
3461 1 442.96 20.3718 0
9155 1 443.911 15.6549 0
10133 1 450.29 22.8513 0
3965 1 450.861 18.7501 0
12192 2 458.572 17.07 0
15528 2 463.189 17.3683 0
20195 2 465.522 22.0248 0
3375 1 470.472 19.5796 0
5030 1 478.564 22.1862 0
17243 2 475.755 18.041 0
5046 1 489.274 21.3787 0
6374 1 484.418 18.2307 0
5741 1 493.081 15.9159 0
20878 2 493.986 20.2222 0
9884 1 500.65 20.9446 0
10991 2 497.603 17.8128 0
20033 2 504.696 17.3862 0
5497 1 509.503 16.8099 0
4961 1 514.12 18.6358 0
11028 2 521.831 18.1266 0
19697 2 524.545 21.0279 0
2763 1 528.591 23.0293 0
14012 2 535.255 22.3867 0
15681 2 529.352 18.1976 0
10766 1 543.013 17.3058 0
15991 2 542.109 21.7713 0
973 1 547.868 21.825 0
11874 2 550.343 16.2603 0
2134 1 558.959 19.976 0
12163 2 554.675 19.5138 0
21070 2 556.959 16.2762 0
8437 1 563.957 19.8651 0
5011 1 569.668 16.0067 0
8650 1 571.001 20.0155 0
9700 1 574.143 17.2785 0
14811 2 579.284 18.9426 0
18063 2 575.143 21.3824 0
13755 2 584.71 22.2031 0
18975 2 587.09 17.6173 0
20103 2 583.282 16.7188 0
13841 2 593.516 15.7529 0
21886 2 590.993 18.7829 0
7418 1 605.225 18.0913 0
15437 2 598.371 19.1137 0
21270 2 604.749 22.8227 0
16799 2 609.223 17.2951 0
2905 1 619.981 21.2387 0
15572 2 616.03 20.1431 0
16031 2 618.6 15.9161 0
17674 2 625.122 18.8268 0
4790 1 630.31 21.3663 0
18226 2 634.499 18.268 0
18387 2 629.786 17.014 0
13928 2 638.402 19.202 0
14604 2 643.971 16.7054 0
5868 1 647.351 21.5954 0
13069 2 648.493 17.7884 0
9264 1 654.681 17.3067 0
14936 2 659.679 18.066 0
19979 2 658.774 22.4438 0
6415 1 663.011 21.7049 0
17454 2 666.009 18.7082 0
1309 1 670.96 22.0231 0
7669 1 675.386 20.4284 0
16079 2 673.625 16.1161 0
4030 1 680.527 22.9315 0
5757 1 681.098 18.1729 0
4145 1 685.954 20.6447 0
426 1 693.664 15.7089 0
18043 2 691.332 20.8446 0
19315 2 697.044 17.9066 0
8189 1 705.279 22.7327 0
12723 2 700.519 21.511 0
18939 2 701.756 15.8548 0
335 1 708.658 16.9914 0
18342 2 709.848 21.8236 0
20766 2 713.609 18.5407 0
8465 1 715.56 22.9678 0
14055 2 717.75 17.4721 0
2098 1 730.078 20.3603 0
3423 1 724.366 18.7215 0
9039 1 735.504 22.4125 0
50 1 740.121 20.6946 0
16191 2 742.739 15.6339 0
7446 1 747.071 15.5753 0
11415 2 746.071 20.7692 0
11604 2 752.688 19.7333 0
2121 1 756.352 15.8013 0
16376 2 758.542 19.1525 0
15393 2 762.445 16.1545 0
16965 2 764.778 21.3245 0
8663 1 776.535 19.0975 0
11872 2 769.205 20.3058 0
10821 1 782.58 21.0859 0
1106 1 786.483 22.9151 0
7648 1 785.34 15.6901 0
9189 1 789.91 18.8194 0
6277 1 798.05 21.5314 0
19634 2 797.716 15.7848 0
14633 2 1.90555 26.5298 0
5334 1 8.18876 28.4503 0
8314 1 13.2343 28.2005 0
637 1 16.7564 24.3344 0
7570 1 19.5174 29.0253 0
12751 2 22.3731 24.8484 0
6705 1 24.9914 30.3564 0
13824 2 28.085 25.1348 0
3537 1 34.2731 28.6727 0
7378 1 44.8399 24.093 0
18228 2 41.6511 29.3292 0
14215 2 47.7913 28.548 0
18574 2 52.932 28.6092 0
3507 1 58.1681 30.891 0
4518 1 58.1678 25.4125 0
4670 1 64.1655 29.8438 0
9604 1 67.5923 24.1202 0
12317 2 68.4971 30.2861 0
3027 1 75.5892 27.9999 0
11456 2 74.4466 23.8428 0
18947 2 70.6388 26.8575 0
2891 1 83.7285 24.4069 0
18743 2 79.8731 27.6105 0
2484 1 93.2007 23.5393 0
18128 2 88.0602 27.4977 0
4548 1 97.7226 23.6017 0
12814 2 96.771 29.5583 0
13763 2 106.957 28.5872 0
14289 2 102.816 24.096 0
21719 2 102.816 28.2346 0
13620 2 115.097 29.64 0
16720 2 115.049 24.1813 0
19326 2 111.146 27.9996 0
1958 1 119.571 29.7097 0
19206 2 124.188 28.7557 0
20416 2 119.571 25.1454 0
15059 2 131.47 24.2614 0
5243 1 132.47 28.7722 0
18792 2 135.897 26.655 0
18004 2 140.467 28.9328 0
8843 1 149.511 30.2035 0
11713 2 153.319 29.0733 0
11736 2 148.511 25.8053 0
9362 1 157.365 26.2787 0
21490 2 161.982 26.9589 0
3705 1 170.074 27.6371 0
17212 2 165.456 24.6215 0
18772 2 175.69 29.4846 0
913 1 183.211 23.8393 0
15720 2 186.4 26.6298 0
16056 2 179.689 29.5086 0
2337 1 193.397 23.5255 0
12915 2 191.208 28.1259 0
21700 2 188.78 23.3776 0
10989 2 201.775 28.4111 0
11822 2 196.348 28.087 0
11983 2 206.106 24.1513 0
139 1 211.77 23.9129 0
5432 1 209.724 27.7713 0
3010 1 217.53 28.412 0
12596 2 224.099 27.1329 0
6682 1 230.239 27.5163 0
20602 2 227.478 30.7645 0
3467 1 236.379 23.7924 0
4673 1 240.425 23.6275 0
7389 1 233.952 30.6897 0
18478 2 237.046 27.7597 0
2595 1 244.091 29.3251 0
19072 2 246.185 24.7832 0
8315 1 252.278 28.7114 0
19551 2 254.895 24.6712 0
2283 1 258.894 23.3553 0
13330 2 261.512 28.5565 0
3285 1 266.7 26.4503 0
15447 2 268.128 31.0268 0
1848 1 273.983 25.7377 0
13216 2 281.408 29.58 0
21466 2 286.263 29.9105 0
11168 2 291.071 27.8316 0
18432 2 287.501 24.5611 0
8530 1 299.305 23.8045 0
16106 2 300.638 28.1451 0
17741 2 295.307 27.3055 0
1323 1 307.016 24.9231 0
16230 2 309.492 28.7313 0
15555 2 315.061 27.7812 0
18424 2 313.871 23.8256 0
12997 2 322.582 27.9023 0
14856 2 324.2 23.4899 0
2142 1 326.913 29.0709 0
12531 2 330.721 25.8621 0
1491 1 334.291 30.5225 0
8299 1 340.289 29.4627 0
3598 1 343.001 24.8257 0
17287 2 345.191 30.7501 0
1775 1 350.475 27.5837 0
5212 1 357.757 26.7584 0
15300 2 361.66 24.9124 0
3499 1 372.228 28.9354 0
14741 2 367.991 25.6359 0
20403 2 365.135 30.2574 0
2018 1 376.178 23.9828 0
18617 2 379.367 26.5855 0
306 1 383.746 25.7621 0
11560 2 386.793 30.7346 0
16252 2 395.694 26.2983 0
16373 2 391.267 30.5539 0
2804 1 402.358 25.374 0
10330 1 401.216 29.3564 0
9842 1 408.831 26.157 0
16636 2 409.783 30.7252 0
20196 2 406.071 29.5116 0
6182 1 415.4 27.6954 0
7067 1 414.305 23.8942 0
3588 1 419.731 24.2934 0
6962 1 425.11 26.2277 0
9747 1 420.112 30.6775 0
16616 2 430.346 25.2036 0
19280 2 429.156 28.9178 0
13466 2 441.151 26.4351 0
16404 2 440.723 30.7272 0
17305 2 436.486 23.765 0
10976 1 448.386 27.4015 0
11739 2 457.335 29.0499 0
18370 2 453.003 25.978 0
21147 2 457.049 23.8971 0
454 1 460.572 25.6347 0
2487 1 465.903 26.8249 0
19494 2 463.618 30.025 0
8767 1 469.711 30.2278 0
21584 2 471.472 23.4894 0
4596 1 480.849 27.8518 0
12027 2 474.709 26.5543 0
10485 1 486.846 25.4084 0
11501 2 482.419 23.5031 0
2440 1 495.081 25.0252 0
12891 2 496.462 30.9614 0
807 1 504.887 30.4238 0
1506 1 505.648 23.4696 0
15299 2 510.979 24.8101 0
6336 1 514.311 28.8434 0
11609 2 516.929 24.8033 0
17108 2 519.071 29.3764 0
4525 1 523.26 25.94 0
6537 1 523.688 30.9394 0
17754 2 527.972 28.1082 0
3126 1 531.875 27.9026 0
2423 1 537.397 30.3659 0
2616 1 538.491 25.8649 0
12795 2 541.395 29.9578 0
4366 1 545.298 30.0152 0
9210 1 545.013 25.7077 0
17027 2 549.773 28.7326 0
11602 2 555.913 24.8834 0
1404 1 566.099 30.3549 0
2647 1 561.339 27.2925 0
20671 2 561.672 23.3406 0
8165 1 570.24 24.6719 0
8901 1 577.047 29.1164 0
14763 2 580.759 23.7058 0
14770 2 575 25.5179 0
16246 2 581.712 30.1274 0
20483 2 589.185 26.5242 0
10365 1 595.087 23.7885 0
8525 1 599.894 23.9699 0
9288 1 601.513 28.1664 0
16033 2 604.75 30.7055 0
7881 1 608.034 28.2909 0
15874 2 611.033 25.1189 0
14681 2 615.079 26.9262 0
19888 2 619.029 28.41 0
14829 2 626.312 25.9881 0
5510 1 635.07 24.1658 0
8798 1 629.692 30.8468 0
19379 2 632.357 27.3816 0
5411 1 639.544 23.8787 0
12794 2 638.688 29.4513 0
7702 1 644.876 25.814 0
8325 1 647.018 30.3809 0
4581 1 652.777 24.28 0
11570 2 656.395 29.5717 0
14299 2 660.441 28.0105 0
14474 2 666.2 25.0089 0
17542 2 664.772 30.5253 0
12011 2 673.911 28.2124 0
21889 2 669.152 29.8207 0
6231 1 677.767 26.4614 0
7133 1 689.762 24.5109 0
21158 2 685.906 26.0366 0
11847 2 693.57 26.6115 0
16633 2 691.618 30.543 0
21093 2 698.092 24.8019 0
11446 2 699.996 28.2784 0
17665 2 705.089 27.0008 0
8128 1 710.991 28.1032 0
19717 2 721.796 24.689 0
3383 1 728.269 25.3279 0
4822 1 726.889 30.5803 0
19715 2 735.457 27.4725 0
126 1 739.741 28.4355 0
1043 1 745.262 26.3407 0
20370 2 749.499 26.6787 0
5564 1 753.83 28.7928 0
5856 1 755.353 24.3574 0
13294 2 757.591 29.8613 0
17775 2 760.018 23.3272 0
9017 1 767.015 25.5073 0
16400 2 763.446 28.8674 0
11094 2 772.537 26.2613 0
297 1 777.106 25.5964 0
17150 2 780.676 28.3409 0
12002 2 791.434 28.3776 0
19176 2 784.865 27.8222 0
5718 1 799.383 29.8165 0
12501 2 794.194 23.6831 0
420 1 4.04814 37.026 0
8648 1 11.4733 32.3594 0
12025 2 9.99798 35.9986 0
20298 2 14.996 38.0227 0
4150 1 18.9467 37.5468 0
11814 2 19.7081 33.4727 0
17568 2 22.8974 36.2695 0
10222 1 32.0838 32.7097 0
19075 2 37.1769 32.0769 0
19958 2 34.6068 36.3978 0
7244 1 42.2702 35.1132 0
85 1 52.2185 36.7394 0
2490 1 47.2205 34.1268 0
20482 2 52.3611 32.7667 0
15985 2 56.8357 38.3462 0
4448 1 65.1656 37.4288 0
19051 2 63.2614 33.7081 0
7820 1 77.446 34.4702 0
13386 2 71.8769 34.2369 0
15590 2 73.7811 38.471 0
3142 1 82.3961 31.4802 0
21359 2 81.3493 36.9444 0
7414 1 88.9652 38.1653 0
12009 2 89.3932 31.2248 0
1199 1 94.7244 33.4293 0
6289 1 100.96 32.7775 0
8167 1 101.96 38.2025 0
8826 1 108.671 32.7629 0
15422 2 104.482 35.1286 0
2466 1 110.956 38.2031 0
12623 2 116.953 33.13 0
12815 2 118.857 37.4517 0
2216 1 125.997 35.0706 0
15794 2 131.661 34.0119 0
18454 2 135.469 35.405 0
10516 1 141.562 38.3816 0
16248 2 140.039 33.3189 0
17779 2 144.37 32.559 0
18261 2 145.561 36.6963 0
4812 1 153.652 33.1294 0
10274 1 150.606 36.9599 0
4720 1 158.888 33.4327 0
19611 2 156.08 37.5021 0
2278 1 164.124 31.0875 0
17190 2 167.932 34.6156 0
19419 2 167.98 38.7907 0
4505 1 171.835 31.5675 0
6594 1 171.883 36.6818 0
17180 2 175.453 33.7224 0
8909 1 179.784 35.8365 0
20282 2 183.783 36.3676 0
2693 1 187.114 31.842 0
12106 2 190.589 34.0126 0
11902 2 195.682 33.9496 0
12974 2 201.442 35.1617 0
4272 1 207.106 32.4438 0
19029 2 206.059 38.0708 0
5139 1 214.579 32.134 0
68 1 224.48 33.4795 0
13548 2 222.243 38.6632 0
16416 2 220.006 34.0797 0
5508 1 232.239 34.3905 0
14047 2 232.572 38.2837 0
20324 2 228.336 36.9314 0
3318 1 239.759 33.1028 0
6128 1 243.187 36.0195 0
19063 2 248.232 35.5006 0
2578 1 251.564 32.5465 0
604 1 257.038 34.6665 0
17044 2 262.083 34.9928 0
228 1 267.415 36.183 0
4257 1 278.077 31.8391 0
19890 2 272.174 31.3252 0
20679 2 275.221 37.1555 0
7197 1 283.36 33.0867 0
17695 2 280.98 36.915 0
9281 1 289.596 33.7435 0
21684 2 293.594 36.6789 0
3161 1 302.067 32.7216 0
9469 1 297.973 35.079 0
17260 2 295.212 32.0974 0
12127 2 305.875 34.4779 0
16265 2 314.014 38.3794 0
16775 2 311.11 33.9484 0
20199 2 316.584 31.9548 0
5344 1 322.63 34.4128 0
2674 1 331.435 34.6994 0
18601 2 326.723 35.0983 0
3305 1 341.003 38.3439 0
20345 2 336.386 35.7604 0
10949 1 341.955 33.8148 0
18451 2 346.62 34.6692 0
8398 1 355.711 32.8333 0
17358 2 351.046 35.3097 0
18044 2 356.901 37.0393 0
7610 1 362.089 36.7551 0
18144 2 360.709 32.5032 0
18238 2 369.515 33.0904 0
6655 1 374.513 34.0877 0
12727 2 376.893 38.0795 0
7860 1 385.841 34.9256 0
16519 2 381.843 32.679 0
13750 2 391.982 34.9772 0
10060 1 398.741 32.9113 0
10393 1 400.788 36.8542 0
743 1 405.595 35.1947 0
7742 1 418.399 36.3193 0
10226 1 415.734 33.179 0
990 1 425.111 34.1292 0
2698 1 430.394 36.0468 0
557 1 437.582 36.05 0
5492 1 435.487 31.0688 0
7621 1 442.342 37.6474 0
9936 1 445.245 31.6474 0
3476 1 451.052 32.5328 0
17370 2 455.003 35.4066 0
9047 1 458.573 38.0009 0
13721 2 463.856 35.1287 0
18464 2 460.048 33.3975 0
12388 2 467.902 35.1015 0
4954 1 476.327 33.9002 0
14642 2 478.946 37.7178 0
18176 2 480.754 33.0882 0
2997 1 484.657 34.0722 0
20268 2 489.417 32.4326 0
21665 2 494.177 36.8037 0
10181 1 501.555 37.1157 0
16147 2 501.412 32.4607 0
19923 2 497.985 34.7594 0
17171 2 507.791 37.8476 0
2992 1 512.884 35.2427 0
17514 2 519.262 33.4231 0
5420 1 528.068 37.6418 0
14885 2 526.592 34.018 0
21682 2 524.022 37.575 0
18462 2 531.638 34.7951 0
20278 2 535.588 34.5133 0
16329 2 540.015 36.4437 0
4453 1 550.344 37.1411 0
11540 2 546.869 33.6932 0
4235 1 554.533 31.194 0
12152 2 554.152 35.5226 0
4260 1 564.101 37.4681 0
5464 1 560.245 38.1547 0
21132 2 562.387 33.0921 0
4349 1 569.194 37.2298 0
18914 2 574.144 32.5431 0
14134 2 578.618 34.9482 0
351 1 586.329 35.71 0
8235 1 587.091 31.3103 0
5914 1 596.658 31.6928 0
11325 2 591.946 31.8975 0
20594 2 595.802 36.5391 0
21168 2 590.756 36.5697 0
1240 1 602.085 37.4515 0
13986 2 600.038 33.6714 0
16034 2 609.891 32.6575 0
16232 2 607.368 36.5954 0
3785 1 616.698 36.8704 0
12873 2 615.031 31.4102 0
9206 1 627.264 34.4069 0
16069 2 622.695 36.7185 0
16429 2 621.933 32.6094 0
2621 1 633.643 31.7296 0
5416 1 633.357 35.9059 0
2196 1 643.924 35.7277 0
3682 1 642.829 31.269 0
9504 1 638.26 38.1763 0
12256 2 637.07 34.277 0
7630 1 651.35 36.3392 0
13100 2 651.397 32.0305 0
9284 1 660.774 32.5863 0
12218 2 666.867 35.7757 0
18992 2 661.393 36.9553 0
408 1 675.054 36.8524 0
3519 1 680.481 35.9368 0
17373 2 676.054 32.5915 0
18787 2 682.146 31.0788 0
1536 1 685.907 37.3566 0
2437 1 698.568 33.5694 0
18569 2 693.665 34.6111 0
1371 1 704.423 32.5128 0
4836 1 707.802 36.4198 0
5696 1 709.706 32.8901 0
16014 2 713.277 38.6588 0
9232 1 717.655 31.7182 0
21267 2 717.56 35.6836 0
1722 1 723.796 34.3744 0
13977 2 729.127 34.544 0
7402 1 734.267 31.2368 0
9071 1 733.696 35.4319 0
8566 1 739.218 38.3146 0
10282 1 745.168 34.3758 0
16557 2 740.646 33.8877 0
13553 2 751.07 33.8003 0
4561 1 756.877 36.802 0
2132 1 761.59 37.9371 0
11989 2 765.16 36.3239 0
16361 2 761.209 32.3919 0
7580 1 769.776 31.657 0
9831 1 772.395 37.14 0
6119 1 783.58 31.5761 0
8763 1 776.821 33.5606 0
15361 2 782.105 35.4531 0
2387 1 788.721 33.766 0
19538 2 787.388 38.3286 0
3169 1 799.145 36.5838 0
6948 1 795.766 34.5363 0
5604 1 2.23971 42.8827 0
8668 1 7.66591 41.0154 0
5480 1 11.569 40.0084 0
19750 2 9.4749 44.6568 0
10682 1 29.6566 38.9996 0
12444 2 26.3725 41.9025 0
17255 2 29.0858 45.6803 0
7123 1 37.3677 39.2291 0
15656 2 35.7972 43.3149 0
20113 2 32.0368 42.1274 0
10636 1 46.364 39.4928 0
15894 2 45.1266 43.2957 0
17086 2 39.8432 44.0579 0
2938 1 49.7913 41.8398 0
8584 1 59.5493 44.3843 0
18399 2 55.0273 43.2325 0
2494 1 67.6409 40.6234 0
17248 2 64.5947 43.1829 0
17477 2 69.688 45.9625 0
13395 2 76.3517 42.5087 0
1296 1 84.7289 39.0607 0
7993 1 85.7288 44.4294 0
18759 2 90.8696 45.1605 0
91 1 94.0108 39.5184 0
9672 1 100.961 43.1396 0
19540 2 97.0098 43.1021 0
6524 1 107.291 43.9383 0
2399 1 116.145 44.6246 0
2852 1 122.428 41.2919 0
18777 2 120.095 44.7873 0
5084 1 127.616 43.3682 0
15661 2 129.377 39.5474 0
10183 1 137.659 39.9959 0
16678 2 135.518 44.013 0
17285 2 139.706 45.2161 0
21834 2 145.561 40.7534 0
10757 1 148.607 43.7225 0
3028 1 156.604 41.5665 0
3077 1 163.03 39.4015 0
5694 1 164.029 43.6243 0
8141 1 168.171 43.2256 0
6010 1 172.692 40.8775 0
18433 2 173.597 44.9209 0
18516 2 176.976 40.6823 0
13807 2 183.498 45.4024 0
12362 2 191.494 39.615 0
16835 2 187.258 39.734 0
19617 2 190.495 43.7131 0
2185 1 197.92 46.1592 0
15491 2 196.635 40.3649 0
18292 2 201.776 44.2454 0
16902 2 207.678 43.6323 0
8150 1 214.104 45.512 0
11852 2 211.01 39.5575 0
4863 1 217.912 40.0053 0
9898 1 220.482 44.1871 0
20712 2 224.481 45.9203 0
21497 2 228.479 46.5578 0
4664 1 237.999 41.2688 0
14962 2 235.666 45.0083 0
814 1 243.806 40.351 0
11330 2 248.423 44.0114 0
963 1 250.85 39.0927 0
12692 2 255.658 39.5745 0
21502 2 252.374 42.7529 0
8217 1 260.942 44.0905 0
17682 2 256.563 46.2601 0
3627 1 271.699 44.603 0
5591 1 264.559 42.3071 0
5794 1 268.176 40.8181 0
3761 1 273.174 40.488 0
6487 1 277.125 41.1955 0
1394 1 287.169 41.0164 0
1493 1 283.361 42.8666 0
11154 2 291.595 41.2813 0
16051 2 299.163 39.9049 0
11160 2 306.446 46.2298 0
14665 2 305.446 39.2333 0
19069 2 302.972 43.0449 0
12233 2 314.967 42.3717 0
146 1 323.487 39.8597 0
6163 1 319.536 38.8955 0
18328 2 319.679 44.1078 0
21129 2 324.582 44.6627 0
8690 1 330.341 42.4437 0
19820 2 329.247 46.4062 0
951 1 334.625 39.9694 0
17213 2 338.671 41.9645 0
7022 1 343.383 43.9261 0
12215 2 349.666 40.1927 0
21086 2 353.427 45.2058 0
3240 1 358.044 46.0237 0
14475 2 361.328 43.6655 0
2026 1 370.848 39.7163 0
2574 1 365.279 41.543 0
11997 2 372.276 44.5245 0
14026 2 366.993 45.6936 0
6217 1 378.75 43.0847 0
20761 2 375.799 46.5751 0
9401 1 383.414 44.0143 0
14452 2 383.033 39.809 0
2207 1 390.935 41.0987 0
16973 2 389.888 46.3187 0
21252 2 395.552 41.3469 0
21320 2 393.505 44.767 0
15487 2 402.501 41.2177 0
18309 2 397.599 45.9534 0
13780 2 408.356 43.9428 0
19671 2 407.404 38.9363 0
530 1 415.829 44.4844 0
7925 1 413.735 39.4406 0
8359 1 423.445 40.1643 0
14453 2 421.874 44.0873 0
6905 1 428.062 41.2702 0
18386 2 431.347 44.0899 0
2200 1 441.39 42.2266 0
12080 2 435.63 41.0709 0
12944 2 447.673 41.9243 0
3975 1 452.862 44.9335 0
15076 2 451.148 39.3177 0
111 1 459.478 45.0684 0
9051 1 465.332 38.8902 0
9276 1 464.333 42.9007 0