ITEM: TIMESTEP
0
ITEM: NUMBER OF ATOMS
400
ITEM: BOX BOUNDS ff ff pp
0.0000000000000000e+00 2.0000000000000000e+02
0.0000000000000000e+00 2.0000000000000000e+02
-5.0000000000000000e-01 5.0000000000000000e-01
ITEM: ATOMS id type x y vx vy fx fy v_dist
236 1 190.516 0.592433 -814.643 894.668 9144.42 -9018.93 134.443
183 1 46.1118 1.56392 484.994 885.925 -5013.19 -8415.27 112.221
209 1 103.088 1.56404 -27.7928 885.924 -752.551 -8495.67 98.4844
243 1 76.6468 3.37184 210.178 869.653 -2594.24 -9426.76 99.4101
219 1 81.2282 2.52977 168.946 877.232 -130.158 -7896.86 99.2614
24 1 9.30586 3.51568 816.247 868.359 -7132.02 -7219.34 132.418
280 1 177.165 4.24786 -694.481 861.769 7343.68 -6921.33 122.975
49 1 185.03 5.17366 -765.273 853.437 8211.53 -6850 127.366
129 1 52.9426 5.97822 423.517 846.196 -4252.48 -8691.04 105.14
256 1 95.9366 6.44051 36.5706 842.035 1211.86 -9781.95 93.6477
363 1 115.143 6.40867 -136.286 842.322 -33.9169 -7349.74 94.8085
250 1 194.277 6.3991 -848.489 842.408 9058.54 -7592.96 132.85
81 1 13.0546 9.18486 782.508 817.336 -6912.52 -6608.91 125.725
64 1 56.12 8.36987 394.92 824.671 -3580.49 -9347.76 101.595
201 1 66.8536 9.04575 298.317 818.588 -2919.93 -9122.19 96.8058
328 1 168.764 9.21311 -618.872 817.082 5010.01 -9551.63 113.889
339 1 1.01203 9.25649 890.892 816.692 -9304.43 -7562.73 134.287
87 1 23.5027 9.8796 688.476 811.084 -7685.88 -6719.43 118.21
133 1 80.8717 9.96492 172.155 810.316 -502.769 -6746.99 92.0446
105 1 114.869 11.2671 -133.825 798.596 2312.83 -9049.52 89.9702
264 1 122.271 11.0371 -200.44 800.666 1200.98 -9662.34 91.7083
60 1 139.145 10.8285 -352.305 802.544 4573.24 -7801.9 97.3853
342 1 183.603 11.1816 -752.425 799.366 6134.2 -8451.73 121.976
320 1 68.615 12.5661 282.465 786.905 -2324.63 -8394.23 92.8962
231 1 88.0236 12.6409 107.788 786.232 -757.118 -7892.75 88.1762
100 1 131.862 11.9731 -286.762 792.242 4329.67 -8231.62 93.616
59 1 147.023 12.1688 -423.205 790.481 4592.62 -7798.86 99.6266
229 1 178.129 12.117 -703.16 790.947 7483.04 -9068.76 117.591
289 1 52.8954 13.2234 423.941 780.99 -3924.31 -7560.34 98.7372
75 1 127.983 12.8637 -251.848 784.226 1455.88 -8874.23 91.5193
323 1 11.5437 14.7235 796.107 767.489 -9204.28 -8182.21 122.868
313 1 48.3736 14.7481 464.638 767.267 -3375.23 -7169.63 99.6653
168 1 83.5256 14.7772 148.27 767.006 -1425.33 -7434.61 86.8006
124 1 106.445 14.0994 -58.0012 773.105 -400.57 -6698.03 86.142
334 1 98.1981 15.7272 16.217 758.455 -1392.71 -6074.43 84.2921
15 1 114.965 15.2643 -134.684 762.622 -238.807 -8259.71 86.0471
284 1 190.648 15.8103 -815.829 757.708 7107.31 -8066.93 123.713
84 1 38.2826 16.4544 555.456 751.91 -4294.77 -7675.74 103.87
375 1 139.074 16.3977 -351.666 752.42 3497.87 -9234.08 92.2828
164 1 182.27 17.203 -740.433 745.173 7013 -9133.3 116.721
30 1 83.4901 18.9103 148.589 729.808 -2528.69 -6997.03 82.7534
12 1 92.3317 19.3746 69.0144 725.629 -250.092 -8071.9 80.9893
13 1 110.788 19.5175 -97.095 724.343 -642.985 -7302.43 81.2024
145 1 41.7576 19.7098 524.182 722.612 -5944.31 -7234 99.1902
45 1 31.869 22.1128 613.179 700.985 -6189.16 -6199.17 103.481
48 1 55.9423 22.0622 396.519 701.441 -2876.72 -5947.46 89.5287
380 1 86.858 22.3261 118.278 699.065 -2010.44 -6272.46 78.7778
180 1 104.589 22.9234 -41.2986 693.69 -144.738 -6327.08 77.2131
190 1 67.0211 23.7979 296.81 685.819 -3628.25 -7985.27 83.0323
44 1 16.685 25.0764 749.835 674.313 -6620.23 -5445.37 112.049
332 1 79.8373 25.2478 181.464 672.77 -1598.7 -5625.24 77.4237
350 1 135.743 24.8537 -321.683 676.317 3208.13 -6610.31 83.2135
212 1 89.738 25.8373 92.3584 667.465 -1000.99 -5905.92 74.8694
41 1 0.525224 27.4448 895.273 652.996 -10131.3 -6851.13 123.124
200 1 56.4187 28.6993 392.232 641.706 -3330.35 -7952.37 83.5651
346 1 174.679 27.7759 -672.11 650.017 5553.36 -5686.75 103.891
337 1 33.7377 29.63 596.361 633.33 -6939.11 -4678.2 96.6572
354 1 64.0703 29.3465 323.367 635.881 -2277.62 -5400.56 79.2645
238 1 21.8975 30.569 702.923 624.879 -7404.53 -5006.43 104.502
204 1 10.6879 31.4502 803.809 616.948 -6481.68 -5286.24 112.587
358 1 27.9546 32.2832 648.409 609.451 -7608.51 -6495.23 98.8742
97 1 174.536 31.8613 -670.827 613.248 8404.09 -6438.4 100.988
261 1 76.6248 32.8903 210.377 603.987 -494.142 -7763.69 71.0641
270 1 81.8845 32.6828 163.04 605.855 -3079.44 -4606.66 69.7121
138 1 121.237 33.3668 -191.135 599.699 2166.67 -6855.88 69.9357
140 1 129.674 32.8117 -267.067 604.695 3348.29 -5452.43 73.4495
287 1 91.7733 33.6717 74.0404 596.955 231.172 -6696.5 66.8366
143 1 148.928 34.1515 -440.353 592.636 4131.91 -6572.9 82.0365
335 1 196.718 34.2773 -870.459 591.505 9223.84 -7516.95 116.935
398 1 21.0291 35.6536 710.738 579.118 -5686.24 -4089.21 101.867
5 1 48.5295 35.5566 463.234 579.991 -6015.87 -7204.29 82.4752
377 1 103.197 34.9145 -28.7746 585.769 -136.85 -5073.44 65.164
10 1 113.372 34.803 -120.344 586.773 -379.809 -4552.54 66.5541
98 1 134.113 35.0704 -307.016 584.366 3802.12 -7278.71 73.3453
17 1 178.713 35.0259 -708.42 584.767 6309.04 -4306.99 102.066
237 1 190.125 35.214 -811.127 583.074 7831.12 -6718.83 110.995
196 1 64.4635 37.4585 319.829 562.874 -2504.28 -6047.9 71.9325
274 1 68.7712 37.8998 281.059 558.902 -3308.01 -5727.77 69.5103
156 1 184.473 37.0425 -760.257 566.617 7101.33 -6524.25 105.353
186 1 14.1869 39.0831 772.318 548.252 -7741.32 -3838.08 105.237
254 1 86.3949 39.1584 122.446 547.575 -1792.01 -5960.4 62.3442
113 1 57.6331 39.598 381.302 543.618 -5278.61 -6927.2 73.7791
392 1 94.344 39.9493 50.9038 540.456 -56.9059 -5005.09 60.3165
273 1 5.80953 40.7623 847.714 533.139 -8195.65 -4410.28 111.27
135 1 26.3724 40.5423 662.649 535.12 -6013.21 -3935.44 94.6375
74 1 79.9334 40.9954 180.599 531.041 -2272.58 -6694.3 62.3234
58 1 113.384 40.7601 -120.454 533.159 290.325 -4703.09 60.7329
86 1 117.358 42.0353 -156.225 521.683 1427.43 -5539.75 60.508
35 1 177.262 43.8018 -695.359 505.784 5744 -4191.73 95.5388
223 1 107.113 44.7014 -64.0151 497.688 1543.69 -3646.77 55.7542
390 1 123.392 45.0053 -210.526 494.952 1340.51 -6176.08 59.7628
396 1 127.723 44.5304 -249.509 499.227 2709.94 -4344.9 62.0118
14 1 86.4667 45.817 121.8 487.647 -764.206 -4626.35 55.8475
292 1 194.041 45.4705 -846.368 490.766 9363.58 -5914.69 108.707
111 1 114.788 47.1262 -133.095 475.864 2816.79 -5096.29 54.9029
356 1 148.477 46.942 -436.29 477.522 3762.15 -3924.88 71.8689
131 1 96.3556 47.7702 32.8 470.069 651.894 -4997.32 52.3568
251 1 136.458 47.4389 -328.121 473.05 4761.29 -5340 63.9676
161 1 171.86 48.2011 -646.738 466.19 6579.64 -6212.92 88.583
69 1 19.0188 49.4601 728.831 454.859 -6454.57 -3790.52 95.458
179 1 39.308 49.0426 546.228 458.616 -7162.94 -5688.12 79.2476
118 1 75.4954 50.4105 220.542 446.306 -541.427 -4293.34 55.3137
329 1 164.72 50.7498 -582.481 443.252 6779.75 -4200.08 81.3282
318 1 104.567 51.4745 -41.0997 436.73 600.393 -4965.57 48.7399
347 1 111.576 51.0966 -104.18 440.13 2281.21 -3623.86 50.2547
215 1 159.353 51.4528 -534.18 436.925 4466.01 -4132.87 76.6789
169 1 70.8308 52.8509 262.523 424.341 -3872.83 -5424.93 55.4426
149 1 57.9314 53.4206 378.617 419.215 -2526.95 -5918.58 62.7647
235 1 64.2027 53.9497 322.176 414.452 -2096.63 -3306.71 58.3273
260 1 155.093 53.291 -495.84 420.381 5761.77 -5802.79 72.2288
364 1 3.62088 56.1256 867.412 394.87 -7615.15 -3119.28 105.896
194 1 95.535 56.9938 40.1849 387.056 167.484 -2884.91 43.2374
158 1 168.814 57.4037 -619.326 383.367 5424.85 -3391.89 80.9309
333 1 13.7002 60.0483 776.698 359.566 -9466.27 -2837.41 95.0988
22 1 72.7708 59.4353 245.062 365.083 -3529.49 -2331.05 48.8562
221 1 46.3652 60.5755 482.713 354.821 -4815.77 -2497.58 66.5656
317 1 69.1058 60.761 278.048 353.151 -3170.86 -3794.91 49.9415
36 1 93.8574 60.6092 55.2838 354.517 -593.69 -2193.33 39.8669
20 1 42.2242 61.5032 519.983 346.471 -5629.11 -4202.47 69.4266
279 1 167.327 61.4172 -605.941 347.245 4551.51 -4717.86 77.5985
99 1 194.72 61.728 -852.481 344.448 8280.41 -2050.63 102.16
89 1 82.0648 62.5865 161.417 336.722 -1882.04 -4475.54 41.4903
46 1 144.86 62.8848 -403.74 334.037 3489.8 -4996 58.2234
115 1 74.1277 64.7302 232.85 317.428 -2913.62 -2029.23 43.7417
217 1 37.75 64.8849 560.25 316.036 -7072.5 -4279.72 71.4712
357 1 101.997 65.6253 -17.9741 309.373 782.104 -3051.3 34.4327
8 1 119.728 65.0768 -177.55 314.309 3073.86 -4432.46 40.1101
199 1 174.693 65.8274 -672.237 307.553 6424.94 -3860.25 82.139
1 1 182.13 66.96 -739.174 297.36 6846.21 -2515.71 88.5272
11 1 188.485 67.0271 -796.365 296.756 7209.01 -2106.76 94.4288
28 1 134.555 67.5213 -310.996 292.308 3003.49 -1645.25 47.4228
167 1 146.229 67.0634 -416.059 296.429 4359.06 -2327.02 56.7619
70 1 169.053 69.1599 -621.475 277.561 6652.49 -4357.45 75.6267
128 1 66.0361 69.5196 305.675 274.324 -2157.73 -2600.02 45.6355
230 1 113.683 70.4468 -123.147 265.979 286.476 -1284.99 32.5671
399 1 121.204 70.5193 -190.833 265.326 925.158 -1966.48 36.314
162 1 196.827 70.2934 -871.442 267.359 8986.37 -4285.48 101.281
338 1 15.831 70.9986 757.521 261.013 -8887.01 -3728.2 89.0253
393 1 37.1197 70.9064 565.923 261.842 -5760.41 -3335.74 69.2847
127 1 89.0981 71.1991 98.1174 259.208 -1056.52 -4232.09 30.7952
177 1 175.919 70.9218 -683.271 261.704 5502.77 -3516.82 81.2972
388 1 47.4845 71.8253 472.64 253.572 -5437.59 -2897.08 59.5961
348 1 72.8668 71.7722 244.199 254.05 -914.491 -4192.59 39.1538
271 1 60.1341 73.0879 358.793 242.209 -2867.33 -1067.49 48.0994
187 1 102.938 72.9753 -26.4388 243.223 -251.858 -2863.23 27.1839
144 1 85.6355 75.0874 129.281 224.214 154.915 -3558.38 28.7573
213 1 93.0728 74.6327 62.3448 228.306 -2317.41 -1013.64 26.2961
343 1 143.349 75.0085 -390.145 224.924 3347.03 -3241.93 50.0375
247 1 120.657 75.3635 -185.909 221.729 1201.21 -2828.32 32.1505
344 1 170.576 75.4373 -635.186 221.065 5730.73 -1595.68 74.7284
298 1 188.985 76.2073 -800.868 214.134 8615.98 -3179.02 92.1112
283 1 3.45552 76.8957 868.9 207.938 -9911.7 -3658.68 99.2706
132 1 20.6865 78.3916 713.821 194.475 -7366.34 -1521.78 82.2043
301 1 65.3346 78.4556 311.989 193.899 -3109.68 -2435.64 40.8148
246 1 145.504 78.5076 -409.532 193.432 2847.47 -976.065 50.3239
72 1 159.855 78.2595 -538.692 195.664 3962.38 -1437.2 63.6807
310 1 175.253 77.5374 -677.277 202.164 5505.76 -3688.72 78.534
263 1 92.2163 78.8279 70.0536 190.549 860.183 -2808.65 22.5576
16 1 116.742 79.506 -150.676 184.446 2107.78 -1976.41 26.463
227 1 169.696 79.8443 -627.264 181.402 6237.11 -2646.21 72.5519
141 1 191.651 81.9835 -824.861 162.149 8484.51 -2650.56 93.4052
67 1 33.6694 82.4142 596.975 158.272 -5531.89 108.961 68.6222
103 1 85.5526 82.4069 130.027 158.338 -2821.36 -888.804 22.765
386 1 161.902 82.1633 -557.115 160.531 4332.31 -1330.86 64.4203
119 1 71.6299 83.3342 255.331 149.992 -3830.9 -2253.46 32.9031
282 1 125.084 83.6441 -225.754 147.203 2810.47 -1941.98 29.9451
319 1 145.206 85.2652 -406.858 132.613 4386.87 -1924.08 47.5472
353 1 169.863 85.2236 -628.766 132.988 4757.16 -1966.36 71.4084
276 1 178.966 85.8041 -710.696 127.763 6063.61 -145.7 80.2321
232 1 9.32277 87.7866 816.095 109.92 -6681.18 -1045.01 91.496
362 1 63.562 86.8175 327.942 118.642 -4060.74 -1408.27 38.7492
175 1 0.81444 88.2964 892.67 105.333 -7873.88 224.753 99.8737
77 1 82.221 88.7576 160.011 101.182 -2357.02 -2431.88 21.0353
151 1 17.7361 90.0135 740.375 89.8781 -6409.19 574.223 82.8679
23 1 27.4225 89.7688 653.198 92.0807 -5701.63 -2439.97 73.2951
137 1 191.759 89.9828 -825.829 90.1548 8259.62 -922.404 92.304
325 1 55.9345 90.4226 396.59 86.1964 -2379.68 -1126.04 45.0943
376 1 64.5381 91.1427 319.157 79.7161 -4599.8 -1156.16 36.5514
345 1 72.38 90.1969 248.58 88.2278 -3134.09 396.881 29.3081
25 1 127.345 91.101 -246.107 80.0909 2403.91 -2337.52 28.7568
184 1 98.5597 92.0812 12.9631 71.2696 -710.831 2.19636 8.04878
176 1 160.01 92.6253 -540.092 66.3724 5567.86 -1822.94 60.4617
297 1 72.9752 94.2691 243.223 51.5783 -758.129 -669.278 27.6258
324 1 42.1549 97.7659 520.606 20.1065 -5300.63 -1673.31 57.8882
275 1 56.3514 97.274 392.838 24.5342 -2242.95 1125.23 43.7337
93 1 67.8585 97.2424 289.274 24.8184 -1618.42 -1298.1 32.2596
178 1 76.4977 97.4545 211.52 22.9096 -1278.75 705.946 23.6397
218 1 154.798 97.8359 -493.186 19.4765 4052.34 -1380.09 54.8412
248 1 160.594 97.7026 -545.343 20.6765 7037.46 137.579 60.6372
294 1 36.8477 98.8855 568.371 10.0303 -5667.64 -753.273 63.1622
265 1 106.997 98.6543 -62.973 12.1113 505.7 -1104.91 7.12523
62 1 0.660416 99.612 894.056 3.49179 -8039.78 834.561 99.3403
360 1 27.6968 99.9855 650.729 0.130176 -7433.59 826.818 72.3032
7 1 120.908 99.7606 -188.171 2.15503 1181.18 1280.03 20.9093
277 1 126.025 100.217 -234.224 -1.95065 831.021 -1506.01 26.0258
39 1 134.843 100.098 -313.584 -0.879503 4025.91 664.019 34.8428
153 1 19.1171 101.366 727.946 -12.2902 -5675.96 972.985 80.8944
146 1 64.2293 101.069 321.937 -9.61794 -1762.7 -1395.07 35.7867
281 1 184.87 102.608 -763.826 -23.4704 6106.36 1906.39 84.9096
258 1 38.0498 103.642 557.551 -32.7809 -3976.85 -101.743 62.0571
233 1 95.0856 103.699 44.2296 -33.2913 -252.22 -799.064 6.15095
182 1 118.04 103.304 -162.363 -29.7343 3035.74 -167.584 18.3403
165 1 156.929 103.489 -512.36 -31.4045 5871.47 476.066 57.0357
379 1 163.914 103.688 -575.227 -33.1929 6710.35 182.565 64.0204
9 1 25.2339 106.278 672.895 -56.5004 -8284.7 -590.332 75.0292
80 1 42.8813 105.69 514.068 -51.2142 -5662.74 1748.48 57.4015
6 1 61.445 106.119 346.995 -55.0709 -2740.41 719.301 39.0375
157 1 77.6882 106.089 200.806 -54.7986 -3217.46 969.913 23.1276
378 1 196.234 105.366 -866.106 -48.2905 8093.31 -819.935 96.3835
374 1 0.470477 107.305 895.766 -65.7439 -10178.6 1402.64 99.7972
82 1 103.725 107.242 -33.5256 -65.1783 264.25 2071.26 8.1439
327 1 88.6481 108.056 102.167 -72.5008 -682.543 1251.16 13.9198
397 1 153.954 107.805 -485.588 -70.2462 4460.57 1314.73 54.5158
21 1 158.155 108.601 -523.394 -77.4088 5891.48 -679.346 58.7874
387 1 53.8769 109.275 415.108 -83.4757 -3957.45 2477.09 47.0464
116 1 2.67214 110.701 875.951 -96.3106 -8513.17 -344.152 97.9144
242 1 16.8449 111.852 748.396 -106.665 -8668.42 424.934 83.9955
253 1 91.9684 113.099 72.2843 -117.89 -977.859 2471.02 15.3651
104 1 190.368 112.954 -813.311 -116.589 7026.36 -420.068 91.2917
51 1 104.094 114.11 -36.8493 -126.991 -52.2933 969.959 14.6921
189 1 113.757 113.741 -123.813 -123.666 1576.89 2629.43 19.4438
110 1 31.8269 114.493 613.558 -130.439 -6118.03 1732.13 69.6967
222 1 194.271 114.882 -848.44 -133.94 6757.63 333.479 95.4386
341 1 23.9612 115.806 684.349 -142.252 -7184.68 2632.5 77.6642
315 1 77.1414 116.173 205.727 -145.561 -708.523 717.331 28.0017
174 1 1.42309 117.912 887.192 -161.208 -10099 2745.1 100.191
159 1 47.1183 117.447 475.935 -157.024 -3953.82 2655.29 55.6855
83 1 93.9559 117.63 54.3965 -158.67 -2004.21 2220.61 18.6373
368 1 37.5986 118.994 561.613 -170.942 -6775.34 2400.13 65.228
234 1 98.5493 118.86 13.0559 -169.741 -1771.91 2932.48 18.9158
384 1 31.744 121.044 614.304 -189.397 -5682.75 3595.79 71.4265
371 1 90.4695 121.318 85.7743 -191.866 -1023.84 2871.43 23.3518
43 1 187.227 121.301 -785.041 -191.711 7505.82 239.43 89.7901
73 1 191.582 120.683 -824.239 -186.15 9648.15 652.625 93.8887
395 1 56.8526 121.897 388.326 -197.074 -5224.44 2623.04 48.3858
102 1 75.0951 122.513 224.145 -202.615 -995.632 2650.04 33.5721
142 1 64.4567 123.521 319.89 -211.686 -4862.36 3096.91 42.621
365 1 152.218 122.808 -469.959 -205.269 3515.8 1927.53 56.9814
108 1 23.1882 124.656 691.306 -221.902 -5802.1 1609.7 80.6719
38 1 104.393 124.816 -39.5325 -223.346 814.238 905.614 25.202
101 1 86.7213 125.443 119.508 -228.989 -558.409 2336.55 28.6998
299 1 129.418 125.862 -264.761 -232.758 1983.45 2531.53 39.1696
160 1 148.577 125.598 -437.189 -230.382 4473.55 2219.85 54.9084
331 1 159.013 125.337 -531.114 -228.03 4632.61 3050.03 64.2218
367 1 6.57621 126.399 840.814 -237.589 -9827.18 3219.59 97.0819
240 1 44.1082 126.053 503.026 -234.473 -6650.18 3657.31 61.6655
55 1 82.8539 126.235 154.315 -236.115 -1141.24 1051.34 31.3411
37 1 163.773 126.303 -573.954 -236.729 5516.76 2031.23 68.9841
52 1 113.556 128.135 -122 -253.212 518.166 3147.71 31.23
152 1 182.622 128.128 -743.598 -253.151 7620.78 2373.8 87.2787
130 1 192.713 128.126 -834.417 -253.136 7559.08 3517.65 96.8854
304 1 30.376 129.095 626.616 -261.855 -4652.14 4193.52 75.4587
50 1 175.113 129.118 -676.02 -262.061 7121.41 2610.95 80.5597
171 1 43.7277 131.164 506.451 -280.474 -3711.36 4039 64.3254
228 1 55.9012 131.124 396.889 -280.113 -4970.74 2714.58 53.9758
340 1 145.828 131.803 -412.452 -286.225 2890.06 1900.42 55.7819
336 1 167.617 132.136 -608.549 -289.226 6756.42 4428.69 74.8648
308 1 68.6103 133.474 282.507 -301.269 -1530.39 2408.8 45.8895
382 1 27.5562 136.373 651.995 -327.361 -7153.84 1541.7 81.0626
300 1 62.2202 135.394 340.018 -318.549 -2551.09 2977.47 51.7694
65 1 107.82 136.012 -70.3828 -324.105 33.1742 1920.47 36.851
352 1 148.553 135.975 -436.98 -323.773 3429.29 1568.22 60.4286
224 1 159.108 135.924 -531.976 -323.313 4317.67 4353.79 69.1688
210 1 182.694 136.012 -744.245 -324.109 6849.07 3133.11 90.1951
117 1 33.3514 136.517 599.838 -328.655 -7611.05 3033.36 75.997
205 1 101.204 136.458 -10.8364 -328.118 186.878 3912.27 36.4774
170 1 122.886 137.053 -205.97 -333.479 914.438 3371.42 43.551
26 1 15.728 139.74 758.448 -357.66 -7881.07 4979.18 93.1721
4 1 21.178 139.009 709.398 -351.077 -7139.64 1957.51 87.9464
76 1 47.0482 139.109 476.566 -351.981 -4432.01 4851.45 65.8286
33 1 68.4322 139.777 284.11 -357.993 -2235.17 3495.55 50.7813
125 1 92.1604 139.577 70.5565 -356.197 -2111.09 5175.32 40.3465
278 1 187.418 139.144 -786.765 -352.298 8592.61 3516.13 95.7822
400 1 25.7714 139.905 668.057 -359.147 -6124.7 4234.92 84.2752
307 1 110.986 141.564 -98.8739 -374.075 931.478 4191.78 42.9913
66 1 31.8405 143.327 613.435 -389.942 -7567.24 4992.67 80.7647
19 1 102.168 142.699 -19.5147 -384.289 673.186 4588.56 42.7538
202 1 135.964 142.795 -323.674 -385.159 3384.49 2803.97 55.9003
85 1 156.408 142.686 -507.668 -384.175 3387.63 4727.2 70.7384
150 1 0.841518 143.392 892.426 -390.527 -8275.62 4935 108.237
389 1 59.1744 143.899 367.431 -395.089 -4437.75 2893.87 59.9486
106 1 68.2896 143.999 285.393 -395.987 -1147.77 3018.62 54.2349
40 1 91.3753 143.903 77.6227 -395.123 -1618.33 5083.67 44.7417
225 1 147.971 144.166 -431.737 -397.496 3901.8 3475.73 65.2062
268 1 163.381 143.433 -570.428 -390.896 7342.02 2783.82 76.8346
107 1 175.186 144.431 -676.67 -399.878 7818.16 5335.22 87.3326
91 1 7.11279 144.627 835.985 -401.643 -7599.44 3632.85 103.051
193 1 27.1878 144.537 655.31 -400.831 -5443.66 5016.91 85.3531
42 1 52.3202 145.488 429.118 -409.391 -5642.14 3150.21 65.8977
330 1 98.7532 145.293 11.2211 -407.638 -218.96 3100.58 45.3103
195 1 140.105 144.699 -360.945 -402.294 4279.32 5715.59 60.0536
53 1 62.9349 146.689 333.586 -420.203 -3365.66 3813.43 59.6129
306 1 133.31 146.567 -299.793 -419.105 4601.22 3444.14 57.2545
27 1 156.658 147.414 -509.92 -426.725 3842.5 5918.11 73.8795
370 1 2.37692 148.827 878.608 -439.442 -8650.33 5428.49 109.153
269 1 99.4437 150.235 5.00672 -452.115 446.541 4402.94 50.2381
126 1 171.949 150.055 -647.543 -450.493 4912.12 5647.17 87.648
207 1 178.756 149.188 -708.802 -442.696 8683.62 3329.4 92.8546
112 1 7.26785 150.814 834.589 -457.328 -8522.95 5601.09 105.742
192 1 43.3362 152.213 509.974 -469.916 -4725.19 6341.05 77.0517
351 1 89.5194 152.55 94.3254 -472.947 -881.195 4467.5 53.5846
88 1 138.439 151.996 -345.955 -467.964 3818.48 3405.74 64.662
181 1 37.9695 152.999 558.275 -476.989 -6614.17 3662.65 81.5884
197 1 2.32965 154.502 879.033 -490.519 -8745.97 3422 111.848
239 1 168.261 156.144 -614.346 -505.298 7176.87 4579.73 88.3837
302 1 177.661 156.385 -698.953 -507.463 6553.57 6326.3 95.9716
385 1 188.943 156.739 -800.483 -510.647 8782.75 4710.39 105.499
296 1 27.9382 158.053 648.556 -522.481 -7850.1 6933.97 92.537
31 1 55.1412 158.137 403.729 -523.232 -3279.16 5441.19 73.4316
185 1 76.7988 157.32 208.811 -515.876 -1156.31 4189.21 61.8372
32 1 90.0671 157.562 89.3962 -518.058 -1232.64 6501.45 58.4127
54 1 172.14 159.301 -649.261 -533.712 6743.95 5248.55 93.3855
155 1 108.798 160.051 -79.1778 -540.463 1014.04 6193.11 60.6924
198 1 137.262 160.019 -335.357 -540.172 4911.28 6306.28 70.6452
211 1 117.639 161.206 -158.752 -550.854 2418.92 5517.99 63.6971
122 1 191.751 161.191 -825.76 -550.715 8018.31 6210.4 110.284
349 1 48.906 162.857 459.846 -565.711 -5799.32 4501.86 81.0036
226 1 180.863 162.21 -727.766 -559.891 8999.26 6782.35 102.024
79 1 81.7138 163.185 164.576 -568.667 -2360.14 5751.03 65.7781
381 1 125.053 163.23 -225.476 -569.067 3575.15 5417.46 68.0121
61 1 143.831 163.672 -394.477 -573.05 2718.63 5452.54 77.3
78 1 91.198 165.21 79.2178 -586.889 -627.271 5821.92 65.8012
148 1 130.11 164.625 -270.993 -581.623 3698.62 5768.43 71.2952
203 1 15.7652 165.4 758.113 -588.603 -7591.65 5538.71 106.643
291 1 107.287 166.869 -65.5799 -601.82 1256.16 5001.02 67.2647
163 1 142.641 167.62 -383.769 -608.577 4069.87 4380.92 79.9417
361 1 191.609 167.527 -824.478 -607.741 9647.88 6348.4 113.807
214 1 85.5815 168.185 129.767 -613.664 -272.536 6440.11 69.6927
309 1 170.451 168.237 -634.058 -614.137 6373.98 6787.55 98.0799
63 1 100.67 169.088 -6.0345 -621.793 402.322 5491.1 69.0914
369 1 112.547 169.332 -112.919 -623.985 -5.14492 5355.16 70.4578
208 1 117.247 168.813 -155.222 -619.313 1646.25 7142.01 70.941
191 1 38.9701 171.012 549.269 -639.105 -5176.77 8073.66 93.6339
311 1 138.952 170.51 -350.57 -634.587 2459.84 6139.29 80.5537
290 1 13.933 172.043 774.603 -648.39 -6976.07 6463.69 112.24
316 1 184.136 171.791 -757.223 -646.115 8200.6 5999.7 110.602
216 1 188.622 171.234 -797.599 -641.105 8668.19 5439.44 113.702
109 1 197.737 172.22 -879.636 -649.977 10428.8 6824.25 121.525
120 1 116.307 172.651 -146.763 -653.86 2371.37 5857.61 74.4588
252 1 124.268 172.388 -218.412 -651.495 2323.96 8090.08 76.3479
259 1 146.652 173.252 -419.864 -659.266 3702.98 6012.48 86.8458
68 1 18.6455 175.251 732.19 -677.257 -6879.77 7801.14 110.821
303 1 111.44 174.958 -102.962 -674.625 135.794 5947.99 75.8263
288 1 28.5938 176.659 642.655 -689.935 -6854.58 7234.59 104.764
312 1 45.8247 175.883 487.578 -682.943 -6356.32 6837.89 93.2369
47 1 65.8283 176.692 307.545 -690.231 -1979.44 5872.95 83.9608
206 1 73.7536 176.106 236.218 -684.957 -1110.56 6812.36 80.505
244 1 151.816 176.133 -466.346 -685.198 5132.73 7531.45 92.0933
355 1 57.9507 177.304 378.444 -695.735 -4166.68 6656.38 88.0002
56 1 106.561 177.848 -59.0528 -700.633 1785.38 8446.41 78.1242
18 1 127.112 177.354 -244.011 -696.19 2055.37 8451.18 81.9682
267 1 176.996 178.029 -692.967 -702.257 6154.89 7050.94 109.622
3 1 184.624 177.49 -761.617 -697.408 8201.83 7588.49 114.743
394 1 189.884 177.453 -808.954 -697.076 8533.98 8616.16 118.651
295 1 62.08 178.281 341.28 -704.532 -3786.41 6194.1 86.9822
92 1 80.8579 178.747 172.279 -708.726 -2521.81 6840.83 81.0405
57 1 139.191 178.368 -352.716 -705.315 4437.81 6268.52 87.6214
34 1 5.11572 179.945 853.958 -719.504 -7789.34 6327.3 124.073
262 1 9.31634 179.648 816.153 -716.833 -6609.2 8032.04 120.695
255 1 144.236 180.034 -398.127 -720.31 2582.98 6482.4 91.446
134 1 18.1342 181.55 736.792 -733.949 -8512.29 8627.32 115.553
94 1 27.547 182.628 652.077 -743.648 -5578.19 6796.8 109.894
166 1 190.36 181.65 -813.241 -734.848 8618.32 7970.61 121.785
121 1 51.5727 182.764 435.845 -744.878 -5038.32 6526.35 95.8912
372 1 86.9747 183.879 117.228 -754.909 -2716.23 7094.76 84.8841
383 1 99.5528 184.055 4.02472 -756.496 1513.88 6058.58 84.0563
286 1 170.297 183.97 -632.674 -755.733 5675.71 8539.2 109.511
322 1 48.7169 185.413 461.548 -768.721 -3800 6878.8 99.6264
366 1 61.8662 185.868 343.204 -772.814 -2459.78 8343.89 93.955
220 1 66.7927 185.687 298.865 -771.182 -1460.74 8813.61 91.8965
391 1 122.222 185.776 -199.998 -771.986 1980.8 7490.42 88.608
95 1 135.24 185.673 -317.164 -771.061 3251.4 5985.96 92.6382
154 1 179.924 185.585 -719.318 -770.264 7151.4 8547.21 117.101
90 1 151.793 187.112 -466.138 -784.012 4790.24 6173.78 101.346
2 1 189.884 186.173 -808.959 -775.557 8378.67 7575.07 124.519
96 1 112.012 187.776 -108.109 -789.986 2433.43 8994.25 88.5944
266 1 131.171 188.131 -280.537 -793.175 1201.8 6838.78 93.4805
249 1 18.1823 189.369 736.36 -804.32 -6350.95 8315.76 121.165
326 1 38.2334 189.437 555.899 -804.936 -5241.32 8080.91 108.693
373 1 158.255 188.664 -524.293 -797.978 4879.87 7082.03 106.089
71 1 6.12781 190.09 844.85 -810.814 -9663.62 7150.06 130.109
139 1 142.607 189.713 -383.46 -807.415 3709.22 7837.49 99.3162
359 1 175.557 190.163 -680.015 -811.469 5465.09 9070.87 117.636
245 1 27.4999 191.544 652.501 -823.9 -6991.38 7513.13 116.776
188 1 32.6882 191.22 605.806 -820.976 -6379.09 9168.35 113.366
136 1 60.6766 191.775 353.911 -825.979 -2652 8868.54 99.8452
173 1 121.616 191.782 -194.54 -826.034 2168.6 8053.35 94.2925
147 1 171.452 190.899 -643.066 -818.093 6370.21 7549 115.62
172 1 186.136 191.343 -775.226 -822.09 8196.65 9210.33 125.551
257 1 9.87641 192.9 811.112 -836.099 -8045.62 7244.13 129.432
114 1 52.0731 192.078 431.342 -828.698 -3363.36 6714.63 103.804
314 1 62.8069 195.092 334.738 -855.827 -2369.59 8836.94 102.107
123 1 128.934 195.066 -260.407 -855.592 3349.49 9644.3 99.3715
321 1 166.716 194.741 -600.443 -852.666 6316.42 8322.26 115.874
29 1 152.9 195.803 -476.103 -862.23 5915.81 7456.39 109.438
293 1 163.098 196.358 -567.886 -867.222 6581.99 9397.39 115.179
241 1 34.0094 196.659 593.915 -869.934 -5411.39 10187.5 117.037
285 1 180.603 197.428 -725.429 -876.855 5683.74 8519.51 126.448
272 1 198.584 197.136 -887.254 -874.221 9303.56 7990.17 138.398
305 1 137.681 199.519 -339.126 -895.671 4214.39 9327.03 106.414
ITEM: TIMESTEP
100
ITEM: NUMBER OF ATOMS
400
ITEM: BOX BOUNDS ff ff pp
0.0000000000000000e+00 2.0000000000000000e+02
0.0000000000000000e+00 2.0000000000000000e+02
-5.0000000000000000e-01 5.0000000000000000e-01
ITEM: ATOMS id type x y vx vy fx fy v_dist
236 1 182.764 9.09966 -737.415 808.47 6347.89 -8829.35 122.934
183 1 50.7232 9.99111 438.324 801.074 -2927.44 -8143.93 102.615
209 1 102.819 9.99795 -25.7285 801.979 181.462 -8153.13 90.0462
243 1 78.6479 11.6499 190.982 786.779 -298.012 -9229.15 90.8937
219 1 82.8437 10.8756 154.336 792.798 -2105.2 -7272.17 90.7607
24 1 17.0759 11.7782 739.7 785.497 -8526.39 -9370.95 121.076
280 1 170.56 12.4401 -627.701 779.151 6602.59 -9338.46 112.452
49 1 177.746 13.2937 -693.151 772.509 8610.36 -7712.41 116.458
129 1 56.9697 14.0279 383.23 764.226 -4816.59 -9352.99 96.1395
256 1 96.2837 14.4442 32.9392 760.918 478.251 -8878.77 85.6364
363 1 113.846 14.4377 -122.867 763.943 435.56 -8228.1 86.6754
250 1 186.2 14.4089 -767.321 761.315 6926.07 -8037 121.475
81 1 20.4999 16.9531 708.305 738.278 -7781.48 -8126.58 114.965
64 1 59.8731 16.2227 356.404 746.109 -4445.23 -8221.93 92.8914
201 1 69.6972 16.8248 270.767 739.977 -4190.73 -5682.85 88.5233
328 1 162.868 16.9874 -561.115 739.006 5495.29 -6699.25 104.132
339 1 9.48589 17.0283 805.525 738.968 -6966.53 -8330.17 122.789
87 1 30.0562 17.602 623.242 734.503 -7547.42 -6681.41 108.081
133 1 82.5054 17.6722 154.296 732.025 -520.928 -8236.52 84.1661
105 1 113.596 18.872 -121.082 723.056 1173.4 -5607.89 82.2593
264 1 120.359 18.6555 -181.44 724.509 664.489 -6578.33 83.8535
60 1 135.783 18.4618 -319.655 725.203 3337.21 -7546.61 89.0444
342 1 176.435 18.7814 -682.059 722.596 6139.77 -8238.49 111.529
320 1 71.3069 20.0606 255.825 712.586 -3139.4 -5773.77 84.9329
231 1 89.0535 20.1228 98.3059 711.616 -185.376 -5919.37 80.6238
100 1 129.135 19.5061 -258.827 716.043 2884.43 -7393.27 85.6043
59 1 142.984 19.6963 -384.573 715.975 2912.77 -8439.07 91.0842
229 1 171.438 19.6435 -635.582 715.404 7803.6 -8209.72 107.52
289 1 56.9352 20.6591 384.303 706.868 -4574.99 -6637.6 90.2749
75 1 125.588 20.323 -228.125 708.188 1329.38 -6363.89 83.6848
323 1 19.1324 22.0365 722.532 695.766 -7433.38 -6554.63 112.329
313 1 52.7901 22.0408 420.259 692.028 -3494.88 -6225.53 91.1395
168 1 84.9429 22.0807 134.978 694.376 -2532.32 -8293.2 79.3608
124 1 105.892 21.4616 -52.1667 700.617 943.123 -7330.57 78.7591
334 1 98.354 22.9328 15.4735 684.789 -455.035 -6342.54 77.0848
15 1 113.687 22.5161 -121.358 689.283 543.614 -6724.31 78.6835
284 1 182.883 23.0251 -737.413 686.321 8369.83 -6165.23 113.114
84 1 43.5777 23.6145 503.489 680.932 -4769.65 -7810.28 94.9644
375 1 135.728 23.5606 -317.835 681.407 3261.65 -5316.87 84.3772
164 1 175.238 24.2968 -668.214 674.387 6384.08 -7561.23 106.732
30 1 84.9 25.8551 133.529 659.975 -213.842 -5633.55 75.6669
12 1 92.9776 26.2769 61.2316 655.582 -1923.89 -5665.22 74.0568
13 1 109.864 26.4068 -87.9132 655.066 2579.22 -6279.62 74.2513
145 1 46.7465 26.5928 475.044 655.4 -3745.9 -6376.86 90.6893
45 1 37.6992 28.795 553.637 635.972 -4567.24 -5877.8 94.6126
48 1 59.7267 28.7421 360.473 635.818 -4641.06 -5616.78 81.8512
380 1 87.986 28.9702 107.585 631.026 -1727.4 -8015.15 72.0387
180 1 104.209 29.5289 -34.7571 628.511 306.516 -5882.72 70.5967
190 1 69.8405 30.3198 268.536 620.483 -1907.27 -5072.85 75.9271
44 1 23.8221 31.4912 679.45 610.411 -5835.61 -5146.69 102.453
332 1 81.5635 31.6504 164.151 608.773 -456.723 -6116.34 70.7925
350 1 132.672 31.2834 -292.724 610.25 2252.33 -7701.77 76.0882
212 1 90.6136 32.1977 83.3398 604.978 -953.287 -7412.52 68.4489
41 1 9.0554 33.6593 811.401 590.776 -6541.81 -7541.8 112.57
200 1 60.1497 34.8049 354.15 580.239 -3386.71 -6892.12 76.4097
346 1 168.275 33.9714 -608.776 589.75 6489.77 -5913.92 94.9802
337 1 39.4052 35.6562 539.312 573.622 -5503.36 -6814.83 88.3847
354 1 67.1482 35.3958 293.027 574.689 -1524.2 -7063.32 72.4772
238 1 28.5943 36.5198 636.432 566.485 -7750.45 -5590.09 95.5432
204 1 18.3318 37.3253 726.348 558.17 -7250.97 -6037.78 102.946
358 1 34.1268 38.0777 587.713 550.175 -5812.08 -6684.15 90.4082
97 1 168.149 37.6887 -607.225 554.521 6207.21 -4690.9 92.3417
261 1 78.6328 38.6325 191.546 545.619 -2455.89 -4463.44 64.981
270 1 83.4371 38.4492 147.381 548.866 -1358.03 -5998.99 63.7404
138 1 119.424 39.0654 -172.297 542.327 2189.02 -6280.2 63.9556
140 1 127.142 38.5675 -241.209 547.843 1372.18 -4002.93 67.1613
287 1 92.4734 39.3453 65.5983 538.947 -1169.29 -4435.03 61.1199
143 1 144.736 39.792 -398.154 536.295 3401.89 -5897.4 75.0088