ITEM: TIMESTEP
0
ITEM: NUMBER OF ATOMS
100
ITEM: BOX BOUNDS ff ff pp
0.0000000000000000e+00 2.0000000000000000e+02
0.0000000000000000e+00 2.0000000000000000e+02
-5.0000000000000000e-01 5.0000000000000000e-01
ITEM: ATOMS id type x y vx vy fx fy v_dist
24 1 9.30586 3.51568 816.247 868.359 -7164.48 -8755.84 132.418
49 1 185.03 5.17366 -765.273 853.437 7489.48 -8090.39 127.366
81 1 13.0546 9.18486 782.508 817.336 -8855.56 -7809.79 125.725
64 1 56.12 8.36987 394.92 824.671 -4441.65 -8976.94 101.595
87 1 23.5027 9.8796 688.476 811.084 -5325.45 -7235.38 118.21
60 1 139.145 10.8285 -352.305 802.544 4553.51 -6561.19 97.3853
100 1 131.862 11.9731 -286.762 792.242 3266.49 -6226.06 93.616
59 1 147.023 12.1688 -423.205 790.481 4790.85 -6220.44 99.6266
75 1 127.983 12.8637 -251.848 784.226 2501.17 -8071.35 91.5193
15 1 114.965 15.2643 -134.684 762.622 2924.41 -8987.81 86.0471
84 1 38.2826 16.4544 555.456 751.91 -6951.34 -6445.63 103.87
30 1 83.4901 18.9103 148.589 729.808 -912.241 -6466.96 82.7534
12 1 92.3317 19.3746 69.0144 725.629 222.416 -5691.84 80.9893
13 1 110.788 19.5175 -97.095 724.343 1339.67 -8344.47 81.2024
45 1 31.869 22.1128 613.179 700.985 -6068.55 -7946.16 103.481
48 1 55.9423 22.0622 396.519 701.441 -5143.9 -8395.22 89.5287
44 1 16.685 25.0764 749.835 674.313 -7893.86 -6138.95 112.049
41 1 0.525224 27.4448 895.273 652.996 -9753.85 -5138.56 123.124
97 1 174.536 31.8613 -670.827 613.248 7927.05 -4776.32 100.988
5 1 48.5295 35.5566 463.234 579.991 -3657.77 -6863.47 82.4752
10 1 113.372 34.803 -120.344 586.773 400.014 -7523.41 66.5541
98 1 134.113 35.0704 -307.016 584.366 4120.35 -5620.12 73.3453
17 1 178.713 35.0259 -708.42 584.767 5694.16 -6305.74 102.066
74 1 79.9334 40.9954 180.599 531.041 -1305.98 -5835.59 62.3234
58 1 113.384 40.7601 -120.454 533.159 1525.3 -5362.01 60.7329
86 1 117.358 42.0353 -156.225 521.683 3024.31 -5526.02 60.508
35 1 177.262 43.8018 -695.359 505.784 7314.16 -4951.89 95.5388
14 1 86.4667 45.817 121.8 487.647 -766.56 -6035.75 55.8475
69 1 19.0188 49.4601 728.831 454.859 -6973.2 -4299.04 95.458
22 1 72.7708 59.4353 245.062 365.083 -3513.22 -4682.8 48.8562
36 1 93.8574 60.6092 55.2838 354.517 -1796.05 -4052.49 39.8669
20 1 42.2242 61.5032 519.983 346.471 -3928.68 -2961.67 69.4266
99 1 194.72 61.728 -852.481 344.448 8582.18 -3209.03 102.16
89 1 82.0648 62.5865 161.417 336.722 -2594.75 -2334.19 41.4903
46 1 144.86 62.8848 -403.74 334.037 2806.87 -1830.25 58.2234
8 1 119.728 65.0768 -177.55 314.309 189.852 -3776.58 40.1101
1 1 182.13 66.96 -739.174 297.36 6340.76 -3463.46 88.5272
11 1 188.485 67.0271 -796.365 296.756 9223.44 -3124.2 94.4288
28 1 134.555 67.5213 -310.996 292.308 3091.17 -4632.96 47.4228
70 1 169.053 69.1599 -621.475 277.561 5823.42 -4457.18 75.6267
72 1 159.855 78.2595 -538.692 195.664 4344.12 -1655.6 63.6807
16 1 116.742 79.506 -150.676 184.446 1946.81 -2660.07 26.463
67 1 33.6694 82.4142 596.975 158.272 -7583.68 -1641.72 68.6222
77 1 82.221 88.7576 160.011 101.182 -2302.6 -1019.69 21.0353
23 1 27.4225 89.7688 653.198 92.0807 -6589.35 -110.134 73.2951
25 1 127.345 91.101 -246.107 80.0909 3549.54 266.034 28.7568
93 1 67.8585 97.2424 289.274 24.8184 -3720.4 470.012 32.2596
62 1 0.660416 99.612 894.056 3.49179 -9498.29 574.904 99.3403
7 1 120.908 99.7606 -188.171 2.15503 1221.56 -1148.63 20.9093
39 1 134.843 100.098 -313.584 -0.879503 4013.95 1306.55 34.8428
9 1 25.2339 106.278 672.895 -56.5004 -6513.01 1667.47 75.0292
80 1 42.8813 105.69 514.068 -51.2142 -5149.39 664.996 57.4015
6 1 61.445 106.119 346.995 -55.0709 -3547.36 1319.43 39.0375
82 1 103.725 107.242 -33.5256 -65.1783 -843.289 330.616 8.1439
21 1 158.155 108.601 -523.394 -77.4088 5825.9 -761.223 58.7874
51 1 104.094 114.11 -36.8493 -126.991 -799.248 2083.32 14.6921
83 1 93.9559 117.63 54.3965 -158.67 -1519.47 3241.8 18.6373
43 1 187.227 121.301 -785.041 -191.711 8806.47 2875.37 89.7901
73 1 191.582 120.683 -824.239 -186.15 7867.09 3103.86 93.8887
38 1 104.393 124.816 -39.5325 -223.346 1951.74 3116.7 25.202
55 1 82.8539 126.235 154.315 -236.115 -2667.56 1960.43 31.3411
37 1 163.773 126.303 -573.954 -236.729 7435.35 2061.37 68.9841
52 1 113.556 128.135 -122 -253.212 2829.63 808.312 31.23
50 1 175.113 129.118 -676.02 -262.061 5311.15 4072.5 80.5597
65 1 107.82 136.012 -70.3828 -324.105 959.148 2382.16 36.851
26 1 15.728 139.74 758.448 -357.66 -6906.86 4171.12 93.1721
4 1 21.178 139.009 709.398 -351.077 -6122.4 2783.82 87.9464
76 1 47.0482 139.109 476.566 -351.981 -5037.28 2873.28 65.8286
33 1 68.4322 139.777 284.11 -357.993 -2321.86 1978.02 50.7813
66 1 31.8405 143.327 613.435 -389.942 -4713.21 5601.39 80.7647
19 1 102.168 142.699 -19.5147 -384.289 -1188.38 2438.51 42.7538
85 1 156.408 142.686 -507.668 -384.175 4652.09 4626 70.7384
40 1 91.3753 143.903 77.6227 -395.123 -2359.47 5266.42 44.7417
91 1 7.11279 144.627 835.985 -401.643 -7627.89 2581.38 103.051
42 1 52.3202 145.488 429.118 -409.391 -5066.34 5634.58 65.8977
53 1 62.9349 146.689 333.586 -420.203 -3616.01 3313.93 59.6129
27 1 156.658 147.414 -509.92 -426.725 5793.21 3848.08 73.8795
88 1 138.439 151.996 -345.955 -467.964 2962.13 4540.89 64.662
31 1 55.1412 158.137 403.729 -523.232 -4538.53 4374.24 73.4316
32 1 90.0671 157.562 89.3962 -518.058 -912.106 6825.02 58.4127
54 1 172.14 159.301 -649.261 -533.712 5925.06 4852.46 93.3855
79 1 81.7138 163.185 164.576 -568.667 -3111.35 4195.64 65.7781
61 1 143.831 163.672 -394.477 -573.05 4396.9 6129.98 77.3
78 1 91.198 165.21 79.2178 -586.889 -510.689 6790 65.8012
63 1 100.67 169.088 -6.0345 -621.793 673.62 7633.69 69.0914
68 1 18.6455 175.251 732.19 -677.257 -7788.49 5388.69 110.821
47 1 65.8283 176.692 307.545 -690.231 -3989.66 7530.81 83.9608
56 1 106.561 177.848 -59.0528 -700.633 455.704 6683.41 78.1242
18 1 127.112 177.354 -244.011 -696.19 1230.53 7828.01 81.9682
3 1 184.624 177.49 -761.617 -697.408 8519.7 8304.19 114.743
92 1 80.8579 178.747 172.279 -708.726 -2487.54 5860.71 81.0405
57 1 139.191 178.368 -352.716 -705.315 3742.02 7700.52 87.6214
34 1 5.11572 179.945 853.958 -719.504 -8085.79 7445.15 124.073
94 1 27.547 182.628 652.077 -743.648 -5620.87 6429.45 109.894
95 1 135.24 185.673 -317.164 -771.061 4657.48 7372.96 92.6382
90 1 151.793 187.112 -466.138 -784.012 4060.63 8690.46 101.346
2 1 189.884 186.173 -808.959 -775.557 9069.49 7458.94 124.519
96 1 112.012 187.776 -108.109 -789.986 2561.17 7290.36 88.5944
71 1 6.12781 190.09 844.85 -810.814 -8336.24 6557.12 130.109
29 1 152.9 195.803 -476.103 -862.23 5594.77 9380.37 109.438
ITEM: TIMESTEP
100
ITEM: NUMBER OF ATOMS
100
ITEM: BOX BOUNDS ff ff pp
0.0000000000000000e+00 2.0000000000000000e+02
0.0000000000000000e+00 2.0000000000000000e+02
-5.0000000000000000e-01 5.0000000000000000e-01
ITEM: ATOMS id type x y vx vy fx fy v_dist
24 1 17.0618 11.7748 737.256 785.614 -6691.48 -9375.13 121.089
49 1 177.751 13.3021 -691.953 773.182 8640.73 -8697.57 116.455
81 1 20.4966 16.9589 707.522 739.131 -8276.04 -5823.35 114.964
64 1 59.8776 16.2159 357.227 745.742 -5230.48 -7771.14 92.8955
87 1 30.0625 17.5974 624.232 733.488 -4736.88 -7258.69 108.081
60 1 135.79 18.4747 -319.094 727.752 4011.25 -6515.74 89.0354
100 1 129.141 19.5103 -258.87 716.665 3428.57 -7662.78 85.6026
59 1 142.996 19.6883 -382.011 714.442 2213.71 -8240.15 91.0969
75 1 125.585 20.3272 -228.757 710.086 1486.79 -5913.8 83.68
15 1 113.68 22.5097 -121.947 688.136 2914.81 -6429.52 78.6886
84 1 43.5749 23.621 503.44 681.147 -5213.36 -6919.46 94.9607
30 1 84.902 25.8616 133.425 660.877 -1883.14 -6003.53 75.6601
12 1 92.9855 26.2792 62.4196 656.036 -1170.89 -6699.95 74.0537
13 1 109.86 26.4127 -89.2534 655.512 167.493 -6425.24 74.2449
45 1 37.7054 28.7803 554.82 633.927 -3863.34 -7156.56 94.6196
48 1 59.7101 28.7436 359.142 635.879 -2615.55 -5108.68 81.8581
44 1 23.8209 31.4918 679.263 609.822 -6141.17 -7579.14 102.453
41 1 9.0443 33.6693 809.507 592.382 -7504.06 -4922.73 112.573
97 1 168.142 37.7024 -607.461 555.177 6966.14 -6444.8 92.3275
5 1 52.9344 41.0792 418.548 525.437 -5056.29 -6565.8 75.4111
10 1 112.22 40.3965 -110.344 532.223 1447.19 -6585.53 60.8433
98 1 131.189 40.6324 -277.954 528.842 1652.48 -5227.69 67.0619
17 1 171.967 40.5901 -641.588 529.223 5874.41 -4149.3 93.3206
74 1 81.65 46.0569 163.316 481.674 -179.371 -5051.49 56.9788
58 1 112.237 45.8318 -109.587 482.241 2207.27 -5286.53 55.5332
86 1 115.866 46.9918 -141.954 470.533 718.174 -3244.5 55.3316
35 1 170.634 48.6191 -631.763 458.712 6134.05 -4984.25 87.3448
14 1 87.6242 50.4549 110.08 440.768 -1963.7 -5478.28 51.0674
69 1 25.9539 53.7893 659.657 412.193 -6356.63 -2556.06 87.2826
22 1 75.111 62.9123 222.737 330.821 -521.719 -2730.21 44.6649
36 1 94.3973 63.9861 52.1734 321.887 15.2861 -3889.33 36.4471
20 1 47.1632 64.8039 470.167 314.875 -6290.98 -1725.79 63.4862
99 1 186.61 65.0068 -770.86 312.097 8733.45 -3056.01 93.4121
89 1 83.6005 65.7841 145.167 303.557 -2296.81 -1746.13 37.943
46 1 141.02 66.0581 -364.792 300.982 2962.37 -1983.79 53.2421
8 1 118.04 68.0573 -160.054 282.939 2374.81 -4213.87 36.6848
1 1 175.083 69.791 -670.421 270.136 7651.07 -1572.02 80.9321
11 1 180.912 69.8581 -719.007 269.734 7260.91 -2580.66 86.3436
28 1 131.598 70.306 -280.822 265.556 3499.06 -4026.25 43.361
70 1 163.142 71.8011 -561.93 251.147 6696.18 -4237.14 69.1527
72 1 154.727 80.1216 -486.993 177.04 4041.78 -427.357 58.2253
16 1 115.302 81.2532 -137.943 165.178 986.375 -2198.84 24.1992
67 1 39.3511 83.9094 539.811 142.602 -5068.74 -1209.37 62.7471
77 1 83.7391 89.722 142.472 92.5505 -2734.71 -1903.18 19.2367
23 1 33.6311 90.6477 590.051 83.4138 -7600.89 -1760.7 67.0246
25 1 125.008 91.8675 -221.71 72.6282 2776.49 -294.804 26.2968
93 1 70.6104 97.4792 261.131 21.7391 -3673.79 -597.246 29.4975
62 1 9.16923 99.6436 808.805 3.68776 -9327.49 1087.78 90.8315
7 1 119.113 99.7709 -170.553 0.0537386 1891.04 -366.822 19.1141
39 1 131.863 100.089 -283.312 -0.713736 4189.65 -1112.38 31.8627
9 1 31.6413 105.743 609.648 -49.9126 -7671.22 1302.02 68.5995
80 1 47.7713 105.202 466.064 -46.3543 -4311.59 1169.02 52.4871
6 1 64.7428 105.601 312.662 -48.5585 -4352.46 2112.33 35.6994
82 1 103.411 106.632 -29.4264 -56.6636 861.813 1231.85 7.45762
21 1 153.168 107.863 -474.772 -70.3905 3233.96 966.708 53.7466
51 1 103.742 112.904 -33.1921 -113.705 654.781 1167.47 13.4353
83 1 94.4702 116.125 48.7094 -143.016 -2092.05 1032.65 17.0469
43 1 179.757 119.466 -709.234 -174.53 6246.29 1620.28 82.0981
73 1 183.737 118.921 -746.196 -167.143 7174.85 1830.96 85.8483
38 1 104.017 122.691 -35.5971 -202.235 966.623 816.585 23.0434
55 1 84.3253 123.98 140.048 -214.958 -1179.78 621.877 28.6482
37 1 158.307 124.046 -519.766 -214.845 5880.48 1435.77 63.0705
52 1 112.389 125.734 -110.373 -227.982 2450.56 1768.79 28.5605
50 1 168.678 126.627 -611.547 -236.05 4690.77 3532.18 73.6587
65 1 107.154 132.927 -61.533 -293.259 -438.59 2038.76 33.695
26 1 22.958 136.334 688.399 -323.625 -6339.63 2153.31 85.18
4 1 27.929 135.665 643.141 -318.559 -4802.16 3765.94 80.4126
76 1 51.5752 135.745 429.887 -320.174 -5078.37 3490.2 60.1888
33 1 71.1318 136.364 256.73 -323.727 -1297.34 4697.12 46.4296
66 1 37.6819 139.609 555.876 -354.296 -4477.2 5115.79 73.8403
19 1 101.977 139.038 -17.5191 -347.009 -911.02 4849.72 39.0882
85 1 151.575 139.034 -458.452 -347.506 5671.25 3380.51 64.6812
40 1 92.1126 140.136 70.1167 -358.427 -1295.48 2043.76 40.9039
91 1 15.0688 140.799 755.623 -364.199 -8759.9 3610.42 94.2226
42 1 56.3999 141.587 386.539 -372.208 -5221.28 4007.38 60.253
53 1 66.1111 142.69 300.319 -380.762 -3636.24 2336.58 54.506
27 1 151.808 143.35 -461.14 -386.377 3941.28 3467.55 67.5522
88 1 135.149 147.538 -312.749 -424.414 1524.63 5714.18 59.1213
31 1 58.9783 153.152 364.213 -474.475 -4774.35 6161.15 67.141
32 1 90.9171 152.63 81.1867 -469.28 -466.73 6037.23 53.4084
54 1 165.96 154.223 -588.181 -482.227 5024.79 5293.19 85.3866
79 1 83.2758 157.777 148.138 -514.475 -1266.79 4798.62 60.1486
61 1 140.073 158.224 -357.713 -518.432 2690.31 4659.26 70.6817
78 1 91.9376 159.623 69.401 -531.318 -212.785 5976.45 60.1661
63 1 100.608 163.176 -6.47225 -562.463 1040.08 4477.14 63.1788
68 1 25.6146 168.811 662.3 -612.167 -5608.63 7722.96 101.332
47 1 68.7493 170.129 277.199 -623.299 -1883.5 5326.35 76.7764
56 1 105.999 171.18 -53.6009 -634.336 1354.6 7474.5 71.4324
18 1 124.796 170.731 -219.578 -630.309 2783.12 4914.4 74.9513
3 1 177.379 170.845 -688.284 -632.276 5616.94 7016.75 104.912
92 1 82.506 172.003 156.619 -640.733 -2090.88 5551.23 74.0975
57 1 135.836 171.659 -319.083 -637.988 3774.96 5117.84 80.1198
34 1 13.2351 173.103 771.792 -650.02 -7426.27 6940.04 113.455
94 1 33.7573 175.556 590.641 -672.894 -6028.33 5625.83 100.483
95 1 132.217 178.337 -286.977 -697.853 4522.98 6627.01 84.703
90 1 147.355 179.653 -421.303 -709.478 4603.34 7053.86 92.6669
2 1 182.185 178.799 -732.138 -701.335 6788.02 5871.06 113.858
96 1 110.99 180.25 -96.3604 -716.345 2423.26 7950.44 80.9988
71 1 14.1587 182.385 763.568 -731.46 -7859.88 8422.28 118.979
29 1 148.378 187.601 -430.281 -779.963 5583.82 6836.7 100.072
ITEM: TIMESTEP
200
ITEM: NUMBER OF ATOMS
100
ITEM: BOX BOUNDS ff ff pp
0.0000000000000000e+00 2.0000000000000000e+02
0.0000000000000000e+00 2.0000000000000000e+02
-5.0000000000000000e-01 5.0000000000000000e-01
ITEM: ATOMS id type x y vx vy fx fy v_dist
24 1 24.083 19.2435 667.947 709.214 -5655 -5906.27 110.838
49 1 171.172 20.6685 -624.984 700.942 5977.19 -6591.55 106.579
81 1 27.2323 23.9952 640.119 668.527 -7063.22 -7802.89 105.223
64 1 63.2797 23.3128 324.615 675.041 -3510.62 -5326.16 85.0253
87 1 36.0095 24.5755 566.303 663.448 -5240.23 -7305.57 98.9122
60 1 132.766 25.3984 -287.247 658.299 3429.62 -4946.87 81.4799
100 1 126.682 26.3315 -233.989 648.636 3354.52 -5990.53 78.3515
59 1 139.366 26.4794 -344.472 645.11 4827.13 -4775.53 83.3964
75 1 123.404 27.0797 -207.534 640.353 3007.56 -5289.03 76.5839
15 1 112.521 29.0618 -109.845 622.843 2167.65 -6446.11 72.0347
84 1 48.3544 30.1041 453.932 617.663 -3658.29 -7817.9 86.9063
30 1 86.1761 32.1432 122.684 596.729 -335.369 -5077.07 69.2506
12 1 93.588 32.5293 57.4515 594.636 -2167.25 -5363.4 67.7746
13 1 109.004 32.6586 -80.2705 594.863 2483.13 -6511.11 67.9407
45 1 42.9868 34.8 502.48 572.165 -5541.17 -5843.26 86.6115
48 1 63.1331 34.7936 325.735 575.329 -3104.38 -6395.22 74.9069
44 1 30.2837 37.2931 613.762 551.708 -7532.97 -6695.64 93.7685
41 1 16.7534 39.3056 732.374 535.83 -5819.5 -5546.68 103.023
97 1 162.365 42.9857 -549.101 502.635 6483.84 -6498.11 84.4987
5 1 56.9141 46.0802 378.995 476.267 -4891.54 -6386.58 69.0198
10 1 111.168 45.458 -100.085 480.174 1615.09 -6020.93 55.6737
98 1 128.537 45.6639 -252.754 477.829 3844.58 -3805.93 61.374
17 1 165.856 45.6263 -580.389 479.041 6662.8 -6159.44 85.4022
74 1 83.2076 50.6481 148.632 437.004 -646.286 -5590.78 52.1306
58 1 111.197 50.4063 -98.3948 434.384 -49.9843 -2866.44 50.842
86 1 114.521 51.4543 -127.804 423.834 2028.45 -3483.5 50.6708
35 1 164.624 52.9759 -571.946 414.206 6174.03 -4534.18 79.9222
14 1 88.6739 54.6422 100.205 396.777 -2030.28 -3701.32 46.7505
69 1 32.2308 57.7119 596.561 373.237 -6644.23 -5091.83 79.8809
22 1 77.2238 66.0528 200.506 297.29 -2505.26 -4323.82 40.8799
36 1 94.8896 67.0525 46.3396 291.241 -929.327 -4026.47 33.3414
20 1 51.6397 67.789 425.745 283.248 -5765.04 -3088.06 58.1057
99 1 179.285 67.9819 -696.867 283.318 5523.77 -3351.88 85.5064
89 1 84.985 68.6719 132.341 274.077 -697.707 -4395.28 34.7405
46 1 137.547 68.9244 -330.428 272.21 1983.9 -3638.25 48.7388
8 1 116.518 70.7525 -143.838 256.486 2055.06 -1070.48 33.5897
1 1 168.699 72.3755 -606.967 247.782 6180.23 -1745.95 74.0447
11 1 174.068 72.4216 -650.012 242.633 5016.81 -2590.99 79.0357
28 1 128.922 72.8286 -254.774 239.896 2109.36 -1494.87 39.683
70 1 157.795 74.1937 -508.307 228.748 5449.99 -1563.72 63.295
72 1 150.096 81.8023 -440.352 159.543 5829.92 -59.5234 53.2984
16 1 113.991 82.8337 -124.632 150.194 124.699 -2238.97 22.1459
67 1 44.4815 85.278 487.277 130.84 -5150.21 -1819.65 57.4372
77 1 85.096 90.5959 128.864 83.7077 -966.954 193.285 17.6229
23 1 39.2557 91.4433 535.138 76.2814 -6125.21 188.382 61.344
25 1 122.902 92.5491 -200.009 64.599 3376.87 665.75 24.084
93 1 73.1046 97.6857 238.259 20.1312 -952.556 1218.9 26.9948
62 1 16.8703 99.6769 732.633 3.18504 -8582.96 645.818 83.1303
7 1 117.497 99.7703 -152.578 0.189083 440.669 1294.94 17.4984
39 1 129.177 100.084 -255.479 -0.423695 2532.88 958.883 29.1773
9 1 37.4462 105.272 552.27 -45.5445 -5208.03 -1100.76 62.7756
80 1 52.2148 104.758 423.049 -43.1302 -3975.54 686.109 48.0215
6 1 67.7118 105.147 282.162 -43.348 -3604.68 -942.062 32.6959
82 1 103.129 106.09 -26.8348 -51.7656 327.861 887.988 6.84647
21 1 148.653 107.184 -429.189 -66.0772 3710.91 299.499 49.1801
51 1 103.422 111.82 -30.5155 -102.207 489.587 1994.43 12.3056
83 1 94.9329 114.764 44.4407 -129.619 -1081.82 1302.48 15.6094
43 1 173.005 117.817 -642.676 -156.787 5774.78 1076.59 75.1479
73 1 176.635 117.316 -675.604 -153.024 8201.28 2752.99 78.5667
38 1 103.667 120.765 -34.3056 -182.753 848.256 2221.32 21.0858
55 1 85.6638 121.951 127.83 -192.415 -1238.78 838.636 26.2178
37 1 153.371 122 -469.41 -194.632 2994.18 1374.68 57.7275
52 1 111.331 123.559 -100.774 -206.51 1952.35 985.467 26.1424
50 1 162.859 124.383 -553.841 -214.012 5243.26 2920.59 67.4225
65 1 106.573 130.13 -54.2382 -266.275 -976.807 3024.2 30.8386
26 1 29.5183 133.257 624.033 -292.466 -6533.23 3919.03 77.9338
4 1 34.0414 132.632 580.667 -288.998 -6943.4 1871.96 73.5893
76 1 55.6657 132.699 388.775 -289.64 -3254.73 2608.94 55.0885
33 1 73.5734 133.276 232.725 -293.975 -2248.79 3911.05 42.4927
66 1 42.97 136.243 502.367 -320.101 -4743.46 2133.79 67.5719
19 1 101.807 135.735 -16.2033 -314.133 1380.78 1776.45 35.7809
85 1 147.221 135.732 -414.55 -313.789 4458.27 1882.76 59.2167
40 1 92.7746 136.72 62.7534 -325.42 928.993 3814.54 37.4244
91 1 22.2612 137.334 684.316 -328.763 -7274.78 3079.08 86.2391
42 1 60.0727 138.047 349.366 -336.638 -4810.92 3414.52 55.152
53 1 68.9693 139.06 271.702 -345.682 -3490.14 2347.99 49.8854
27 1 147.425 139.686 -416.532 -347.878 4475.46 1913.16 61.8394
88 1 132.165 143.494 -283.92 -385.004 4127.43 4270.26 54.0952
31 1 62.4546 148.631 330.5 -430.418 -2072.97 5319.01 61.4379
32 1 91.6916 148.166 73.7129 -423.775 -1012.18 2579.08 48.8778
54 1 160.362 149.631 -531.407 -437.259 5826.92 2746.09 78.1467
79 1 84.6774 152.883 132.21 -465.817 -1919.08 5661.61 55.0577
61 1 136.67 153.284 -323.892 -470.656 2837.34 3767.25 64.6832
78 1 92.6042 154.573 62.6123 -479.023 745.371 3244.66 55.072
63 1 100.544 157.832 -6.52838 -507.307 -469.256 4527.3 57.8342
68 1 31.9162 162.984 599.536 -554.492 -6189.35 6853.23 92.7488
47 1 71.3851 164.194 251.498 -563.949 -3459.46 5288.73 70.2831
56 1 105.495 165.144 -48.1345 -574.048 1059.2 4440.33 65.3754
18 1 122.707 164.735 -198.413 -569.979 1962.68 6305.09 68.6022
3 1 170.835 164.833 -622.213 -570.984 7603.67 6972.24 96.0251
92 1 83.9906 165.893 141.508 -581.555 -265.693 6231.77 67.8095
57 1 132.807 165.584 -288.349 -577.585 1480.5 6492.58 73.3321
34 1 20.59 166.924 700.046 -586.934 -6107.54 4760.93 103.85
94 1 39.3877 169.152 535.879 -608.708 -5204.05 6448.6 91.9561
95 1 129.487 171.69 -259.761 -631.651 1776.77 7757.18 77.517
90 1 143.342 172.89 -382.574 -644.351 2519.21 6912.03 84.8024
2 1 175.218 172.128 -662.039 -634.254 6739.16 5005.1 104.213
96 1 110.069 173.434 -87.5518 -647.995 2054.33 5857.75 74.1215
71 1 21.4386 175.418 693.162 -662.766 -7205.63 7380.39 108.903
29 1 144.286 180.185 -388.918 -705.097 4945.6 5493.58 91.6016
ITEM: TIMESTEP
300
ITEM: NUMBER OF ATOMS
100
ITEM: BOX BOUNDS ff ff pp
0.0000000000000000e+00 2.0000000000000000e+02
0.0000000000000000e+00 2.0000000000000000e+02
-5.0000000000000000e-01 5.0000000000000000e-01
ITEM: ATOMS id type x y vx vy fx fy v_dist
24 1 30.4391 25.9866 604.674 640.073 -4899.14 -7916.45 101.571
49 1 165.218 27.3416 -566.522 634.411 6476.63 -7056.04 97.6351
81 1 33.3185 30.3563 578.864 605.073 -7043.82 -7007.07 96.4193
64 1 66.3719 29.7398 294.666 611.1 -1771.56 -4926 77.8931
87 1 41.3986 30.8883 512.43 600.121 -5862.48 -6155 90.6121
60 1 130.041 31.6698 -258.668 596.082 2893.66 -6071.82 74.6424
100 1 124.456 32.5021 -210.706 586.567 1166.77 -4247.29 71.7918
59 1 136.079 32.6135 -312.918 583.22 3782.26 -7324.9 76.4372
75 1 121.433 33.1649 -187.356 578.727 601.189 -6738.76 70.1877
15 1 111.477 34.9887 -98.5084 563.047 828.938 -4138.08 66.0167
84 1 52.6696 35.9747 410.198 557.861 -2857.55 -5877.84 79.6204
30 1 87.3473 37.8178 112.104 539.642 -2132.66 -4006.78 63.4564
12 1 94.1308 38.1874 51.8456 538.253 -837.791 -6808.05 62.0906
13 1 108.248 38.3212 -72.2319 538.727 -513.265 -5107.2 62.2278
45 1 47.7622 40.2513 454.266 519.284 -3214.97 -6862.18 79.3643
48 1 66.2181 40.2621 292.138 519.44 -1522.77 -5873.56 68.6282
44 1 36.1234 42.5521 555.148 500.976 -5527.76 -4854.36 85.9097
41 1 23.7279 44.3977 663.38 483.373 -4950.35 -5129.96 94.3878
97 1 157.15 47.7765 -494.979 455.631 4853.33 -6162.77 77.417
5 1 60.5159 50.6124 341.529 430.397 -2543.08 -2905.45 63.2307
10 1 110.226 50.0201 -89.1227 433.297 1239.33 -3461.31 51.0152
98 1 126.128 50.212 -228.128 432.783 3370.26 -5991.92 56.2272
17 1 160.327 50.1881 -526.803 433.757 4235.73 -5267.34 78.2338
74 1 84.6213 54.8113 133.518 396.696 -2158.05 -3299.26 47.7339
58 1 110.273 54.5394 -87.0627 393.707 1421.19 -3827.63 46.6068
86 1 113.308 55.4812 -115.072 382.765 1875.24 -2987.7 46.4653
35 1 159.181 56.9168 -517.131 375.052 5059.53 -4718.44 73.2018
14 1 89.6387 58.4242 92.0747 359.948 -2015.28 -4518.19 42.8475
69 1 37.8987 61.2622 539.06 336.75 -5489.89 -3475.68 73.1928
22 1 79.1366 68.8895 182.076 270.76 -2728.02 -3178.76 37.4586
36 1 95.3395 69.8192 43.388 262.693 -7.61643 -3840.75 30.5385
20 1 55.6923 70.4794 385.163 255.213 -2583.95 -3839.26 53.2413
99 1 172.658 70.6852 -629.158 257.228 6169.08 -3778.42 78.3489
89 1 86.2424 71.2836 119.986 248.73 -643.975 -3504.52 31.8419
46 1 134.409 71.5075 -298.065 245.318 3012.34 -2431.55 44.6741
8 1 115.151 73.2012 -129.917 232.917 1071.3 -1486.78 30.7851
1 1 162.928 74.7343 -548.24 224.031 5374.45 -2775.27 67.8105
11 1 167.878 74.7297 -588.793 219.566 5009.45 -2047.81 72.4297
28 1 126.496 75.1141 -231.086 217.691 2906.72 -2059.94 36.3505
70 1 152.957 76.3814 -459.543 208.828 4597.12 -3355.25 57.9856
72 1 145.911 83.3239 -397.829 145.213 2352.32 -3015.04 48.8461
16 1 112.801 84.2646 -113.926 135.924 1746.86 202.53 20.2847
67 1 49.1125 86.5257 439.489 119.046 -3674.63 -318.573 52.6412
77 1 86.3192 91.3949 116.095 75.9849 -1444.48 -961.015 16.162
23 1 44.34 92.1688 483.071 68.4522 -5764.25 882.721 56.2082
25 1 121.007 93.1758 -180.176 60.0194 960.14 276.654 22.0877
93 1 75.3863 97.8902 218.614 20.284 -1700.53 252.972 24.7039
62 1 23.8396 99.7107 662.846 3.78243 -6922.3 -300.861 76.1609
7 1 116.033 99.7771 -140.098 0.632089 -293.642 -1060.44 16.0343
39 1 126.749 100.087 -231.206 1.03385 3919.74 -1539.72 26.7493
9 1 42.6887 104.833 497.698 -41.7527 -3708.93 -248.092 57.5148
80 1 56.2374 104.345 383.309 -39.5286 -4458.27 -1167.66 43.9778
6 1 70.394 104.737 254.469 -38.9336 -1583.39 -127.548 29.9825
82 1 102.875 105.593 -24.1236 -46.9737 1551.22 -783.395 6.28828
21 1 144.567 106.555 -389.09 -59.7923 2741.54 -439.388 45.0468
51 1 103.126 110.843 -27.9981 -93.2816 1544.37 -394.695 11.2846
83 1 95.3636 113.54 41.2629 -114.894 98.3479 -282.13 14.3115
43 1 166.894 116.325 -580.706 -140.904 5186.61 1838.43 68.8571
73 1 170.206 115.861 -610.946 -138.598 6309.76 2961.23 71.9754
38 1 103.338 119.032 -31.3664 -164.172 -124.671 862.057 19.3221
55 1 86.8855 120.116 116.66 -174.433 323.448 271.033 24.0135
37 1 148.908 120.15 -422.546 -175.714 5772.51 3307.51 52.8966
52 1 110.367 121.606 -91.973 -185.299 1762.22 3467.12 23.9641
50 1 157.58 122.34 -502.253 -193.871 4845.37 1183.51 61.7618
65 1 106.056 127.608 -49.9562 -239.448 -578.851 2245.8 28.264
26 1 35.4593 130.477 564.747 -263.26 -6944.39 4215.69 71.3749
4 1 39.561 129.878 525.149 -262.461 -6131.6 1805.33 67.4208
76 1 59.3676 129.934 351.03 -263.821 -2852.47 2929.16 50.468
33 1 75.792 130.484 211.588 -265.318 -1443.73 2466.9 38.9265
66 1 47.7553 133.198 455.491 -288.191 -5722.72 2044.4 61.8999
19 1 101.66 132.742 -14.1501 -284.034 -1372.51 3667.55 32.784
85 1 143.275 132.745 -375.612 -283.985 4040.67 1599.01 54.267
40 1 93.3716 133.628 56.3746 -293.892 630.72 1744.08 34.2746
91 1 28.7675 134.193 617.646 -299.393 -7643.31 1803.96 79.0141
42 1 63.3974 134.843 316.436 -304.817 -4795.94 2176.6 50.5353
53 1 71.562 135.771 246.457 -312.122 -4072.64 1903.23 45.6978
27 1 143.457 136.372 -377.542 -314.751 3683.69 4246.69 56.6695
88 1 129.463 139.832 -256.634 -347.74 3637.53 4901.28 49.5446
31 1 65.6036 144.54 299.184 -389.03 -2174.79 3366.95 56.2755
32 1 92.3919 144.126 66.2157 -383.935 -322.067 4281.26 44.777
54 1 155.307 145.475 -480.587 -393.467 5928.14 4888.43 71.6017
79 1 85.9389 148.459 119.991 -420.597 -980.936 4630.54 50.4582
61 1 133.582 148.802 -294.412 -425.724 4418.32 4247.47 59.24
78 1 93.1982 150.008 56.6241 -434.78 -1918.52 3663.59 50.4681
63 1 100.479 153.002 -6.07348 -460.041 1234.24 3330.89 53.0037
68 1 37.6267 157.714 542.414 -501.61 -6493.64 5040.95 84.9784
47 1 73.7752 158.829 226.383 -509.755 -1219.03 4272.99 64.4093
56 1 105.044 159.678 -42.6238 -519.423 -240.196 5733.39 59.8909
18 1 120.824 159.307 -178.863 -515.368 340.572 5880.49 62.8562
3 1 164.911 159.401 -563.343 -516.008 6390.49 4533.36 87.988
92 1 85.3381 160.37 128.38 -523.439 -1924.72 5728.3 62.125
57 1 130.059 160.091 -261.834 -522.254 4247.1 5834.16 67.1896
34 1 27.251 161.343 632.599 -530.358 -5571.03 6207.26 95.1597
94 1 44.4903 163.366 485.135 -548.603 -3792.52 4712.03 84.2413
95 1 127.018 165.682 -235.133 -571.422 1288.54 6177.18 71.0216
90 1 139.701 166.761 -346.75 -583.032 3065.94 7122.35 77.6737
2 1 168.926 166.097 -598.431 -573.471 7089.83 6098.79 95.4971
96 1 109.232 167.268 -80.1878 -585.547 1533 4687.19 67.8982
71 1 28.0345 169.106 626.634 -601.524 -6505.55 5165.26 99.7728
29 1 140.597 173.475 -350.094 -638.293 5070.64 4716.08 83.9445
ITEM: TIMESTEP
400
ITEM: NUMBER OF ATOMS
100
ITEM: BOX BOUNDS ff ff pp
0.0000000000000000e+00 2.0000000000000000e+02
0.0000000000000000e+00 2.0000000000000000e+02
-5.0000000000000000e-01 5.0000000000000000e-01
ITEM: ATOMS id type x y vx vy fx fy v_dist
24 1 36.1888 32.0851 546.257 580.332 -6485.04 -6539.48 93.1896
49 1 159.821 33.3782 -513.476 573.987 6580.87 -5870.64 89.5381
81 1 38.8165 36.1178 522.792 548.805 -5305.74 -5618.84 88.4554
64 1 69.1773 35.5492 266.272 552.209 -1067.27 -6868.81 71.4419
87 1 46.2689 36.5953 463.252 542.157 -5190.34 -4771.04 83.1095
60 1 127.588 37.3402 -232.699 539.218 1213.62 -6891.93 68.4642
100 1 122.454 38.0904 -190.244 531.76 2222.65 -6848.02 65.8558
59 1 133.105 38.1634 -283.365 527.993 4493.84 -5266.19 70.1404
75 1 119.654 38.6561 -168.292 520.996 711.127 -6902.55 64.4154
15 1 110.532 40.3447 -89.4682 509.131 1694.93 -6347.09 60.5779
84 1 56.5715 41.2838 371.506 505.628 -4502.78 -5637.86 73.0317
30 1 88.4165 42.946 101.96 487.446 -1763.64 -5292.77 58.218
12 1 94.6195 43.3114 46.3795 486.968 -1152.03 -5604.89 56.9434
13 1 107.566 43.4507 -64.1504 487.803 -228.867 -5630.07 57.0532
45 1 52.0748 45.1962 409.58 470.051 -5564.87 -2999.29 72.803
48 1 68.9943 45.2067 264.235 470.009 -2761.17 -4014.82 62.9576
44 1 41.405 47.326 502.04 453.471 -3941 -5464.49 78.7904
41 1 30.0419 48.9927 600.006 437.284 -7301.94 -3714.35 86.5788
97 1 152.441 52.1115 -448.34 412.648 5498.31 -5032.1 71.0168
5 1 63.7699 54.7047 309.197 388.861 -3131.16 -2280.4 58.0024
10 1 109.387 54.1483 -79.1324 393.231 -347.69 -3270.53 46.8026
98 1 123.952 54.3077 -206.907 388.415 2207.79 -4174.16 51.5895
17 1 155.308 54.3149 -477.632 391.893 4101.25 -4919.79 71.7365
74 1 85.8879 58.5827 119.395 358.046 -1768.67 -2240.05 43.7555
58 1 109.438 58.2846 -80.1478 356.882 1592.14 -2382.16 42.7697
86 1 112.209 59.1176 -104.38 345.203 1336.27 -3680.74 42.6666
35 1 154.26 60.4839 -467.535 338.55 3752.07 -4650.28 67.1245
14 1 90.5153 61.8519 84.0802 325.706 589.058 -4300.35 39.3095
69 1 43.0319 64.4676 489.027 304.806 -5615.52 -2619.28 67.141
22 1 80.8641 71.4681 164.168 244.893 -2586.07 -1735.77 34.3548
36 1 95.7544 72.3184 39.4856 237.589 -597.466 -1974.6 28.0053
20 1 59.3603 72.899 348.815 229.222 -2787.12 -1602.07 48.8472
99 1 166.671 73.1353 -569.395 233.389 4526.65 -3667.67 71.8801
89 1 87.3952 73.6534 110.501 225.014 -688.54 -2568.97 29.2066
46 1 131.575 73.8417 -269.458 222.135 2398.68 -1718.73 41.0025
8 1 113.926 75.4238 -116.119 211.349 497.843 -1944.27 28.2474
1 1 157.713 76.8732 -495.744 203.933 5942.09 -1345.89 62.1746
11 1 162.274 76.8111 -534.422 198.076 5612 -2969.41 66.4508
28 1 124.3 77.187 -208.536 196.788 2167.3 -483.132 33.3303
70 1 148.586 78.3676 -415.777 188.028 3861.43 -2687.14 53.1845
72 1 142.119 84.6893 -361.678 128.65 4729.58 -327.255 44.8151
16 1 111.722 85.5557 -102.584 122.353 -271.912 -339.123 18.6023
67 1 53.2884 87.6559 397.386 107.6 -2293.05 -804.943 48.3151
77 1 87.4269 92.1282 105.985 70.4951 -63.4364 -526.682 14.834
23 1 48.9268 92.8242 436.075 62.909 -3400.67 -149.113 51.5749
25 1 119.293 93.7485 -163.646 55.2049 613.006 184.878 20.2802
93 1 77.4666 98.0606 197.641 14.783 -2621.96 -1832.77 22.6167
62 1 30.1513 99.7475 600.529 3.95115 -6049.11 361.978 69.8492
7 1 114.706 99.7943 -125.153 1.58112 2023.86 1108.02 14.7074
39 1 124.543 100.099 -209.36 1.88839 3047.4 932.053 24.5433
9 1 47.4241 104.433 450.489 -38.3683 -3333.29 358.562 52.7624
80 1 59.8835 103.965 346.974 -36.6477 -4141.15 -1213.73 40.312
6 1 72.8115 104.365 229.759 -36.1823 -2417.03 -984.232 27.5366
82 1 102.646 105.147 -21.0978 -42.0842 1771.72 -1193.87 5.7872
21 1 140.861 105.979 -353.548 -55.7728 3692.26 -518.038 41.2958
51 1 102.865 109.965 -24.8431 -83.4735 643.572 821.818 10.3689
83 1 95.7635 112.443 38.2554 -104.889 -489.226 -15.658 13.1446
43 1 161.369 114.976 -524.579 -128.568 6642 -14.2074 63.1704
73 1 164.389 114.547 -553.419 -124.325 4167.72 1320.7 66.0119
38 1 103.038 117.471 -28.4166 -147.987 300.295 1031.81 17.7332
55 1 87.9898 118.455 104.71 -159.169 -980.31 424.531 22.0192
37 1 144.887 118.486 -382.718 -157.889 3959.7 2428.27 48.5449