ITEM: TIMESTEP
0
ITEM: NUMBER OF ATOMS
300
ITEM: BOX BOUNDS ff ff pp
0.0000000000000000e+00 2.0000000000000000e+02
0.0000000000000000e+00 2.0000000000000000e+02
-5.0000000000000000e-01 5.0000000000000000e-01
ITEM: ATOMS id type x y vx vy fx fy v_dist
236 1 190.516 0.592433 -814.643 894.668 9144.42 -9018.93 134.443
183 1 46.1118 1.56392 484.994 885.925 -5013.19 -8415.27 112.221
209 1 103.088 1.56404 -27.7928 885.924 -752.551 -8495.67 98.4844
243 1 76.6468 3.37184 210.178 869.653 -2594.24 -9426.76 99.4101
219 1 81.2282 2.52977 168.946 877.232 -130.158 -7896.86 99.2614
24 1 9.30586 3.51568 816.247 868.359 -7132.02 -7219.34 132.418
280 1 177.165 4.24786 -694.481 861.769 7343.68 -6921.33 122.975
49 1 185.03 5.17366 -765.273 853.437 8211.53 -6850 127.366
129 1 52.9426 5.97822 423.517 846.196 -4252.48 -8691.04 105.14
256 1 95.9366 6.44051 36.5706 842.035 1211.86 -9781.95 93.6477
250 1 194.277 6.3991 -848.489 842.408 7088.12 -7350.61 132.85
81 1 13.0546 9.18486 782.508 817.336 -7251.44 -7342.24 125.725
64 1 56.12 8.36987 394.92 824.671 -3036.64 -6682.26 101.595
201 1 66.8536 9.04575 298.317 818.588 -2614.46 -9286.93 96.8058
87 1 23.5027 9.8796 688.476 811.084 -6821.52 -9047.15 118.21
133 1 80.8717 9.96492 172.155 810.316 -2900.26 -9483.97 92.0446
105 1 114.869 11.2671 -133.825 798.596 942.738 -7381.78 89.9702
264 1 122.271 11.0371 -200.44 800.666 1203.28 -6615.26 91.7083
60 1 139.145 10.8285 -352.305 802.544 4741.84 -6669.27 97.3853
231 1 88.0236 12.6409 107.788 786.232 -103.3 -8925.88 88.1762
100 1 131.862 11.9731 -286.762 792.242 2064.2 -9578.1 93.616
59 1 147.023 12.1688 -423.205 790.481 5282.24 -7681.27 99.6266
229 1 178.129 12.117 -703.16 790.947 5641.55 -8367.54 117.591
289 1 52.8954 13.2234 423.941 780.99 -3739.4 -8335.08 98.7372
75 1 127.983 12.8637 -251.848 784.226 2839.24 -7872.69 91.5193
168 1 83.5256 14.7772 148.27 767.006 -20.6419 -7979.25 86.8006
124 1 106.445 14.0994 -58.0012 773.105 940.582 -7625.1 86.142
15 1 114.965 15.2643 -134.684 762.622 1798.28 -8785.5 86.0471
284 1 190.648 15.8103 -815.829 757.708 8473.4 -7327.52 123.713
84 1 38.2826 16.4544 555.456 751.91 -6617.16 -8551.07 103.87
164 1 182.27 17.203 -740.433 745.173 6161.11 -7959.05 116.721
30 1 83.4901 18.9103 148.589 729.808 -214.737 -6795.04 82.7534
12 1 92.3317 19.3746 69.0144 725.629 -632.78 -7020.84 80.9893
13 1 110.788 19.5175 -97.095 724.343 -9.63211 -6210.4 81.2024
145 1 41.7576 19.7098 524.182 722.612 -6472.36 -5716 99.1902
45 1 31.869 22.1128 613.179 700.985 -7717.44 -7643.34 103.481
48 1 55.9423 22.0622 396.519 701.441 -5016.17 -7504.26 89.5287
180 1 104.589 22.9234 -41.2986 693.69 1672.78 -7093.54 77.2131
190 1 67.0211 23.7979 296.81 685.819 -2986.89 -8568.07 83.0323
44 1 16.685 25.0764 749.835 674.313 -7889.68 -8424.7 112.049
212 1 89.738 25.8373 92.3584 667.465 -1966.39 -6373.6 74.8694
41 1 0.525224 27.4448 895.273 652.996 -8512.68 -7345.57 123.124
200 1 56.4187 28.6993 392.232 641.706 -5536.25 -6476.06 83.5651
238 1 21.8975 30.569 702.923 624.879 -7731.72 -6256.66 104.502
204 1 10.6879 31.4502 803.809 616.948 -8095.46 -5358.81 112.587
97 1 174.536 31.8613 -670.827 613.248 7796.74 -5065.54 100.988
261 1 76.6248 32.8903 210.377 603.987 -2931.43 -5321.68 71.0641
270 1 81.8845 32.6828 163.04 605.855 -2188.12 -5448.73 69.7121
138 1 121.237 33.3668 -191.135 599.699 1251.19 -7124.08 69.9357
140 1 129.674 32.8117 -267.067 604.695 3548.78 -4749.19 73.4495
287 1 91.7733 33.6717 74.0404 596.955 -524.465 -4867.08 66.8366
143 1 148.928 34.1515 -440.353 592.636 4394.82 -5773.51 82.0365
5 1 48.5295 35.5566 463.234 579.991 -4709.75 -5031.19 82.4752
10 1 113.372 34.803 -120.344 586.773 24.8902 -6188.9 66.5541
98 1 134.113 35.0704 -307.016 584.366 3662.12 -7378.97 73.3453
17 1 178.713 35.0259 -708.42 584.767 5916.46 -5034.25 102.066
237 1 190.125 35.214 -811.127 583.074 7135.77 -4175.64 110.995
196 1 64.4635 37.4585 319.829 562.874 -2242.24 -4670.48 71.9325
274 1 68.7712 37.8998 281.059 558.902 -3185.89 -4346.67 69.5103
156 1 184.473 37.0425 -760.257 566.617 9158.98 -4782.93 105.353
186 1 14.1869 39.0831 772.318 548.252 -8847.6 -5883.24 105.237
254 1 86.3949 39.1584 122.446 547.575 471.36 -5781.67 62.3442
113 1 57.6331 39.598 381.302 543.618 -2203.39 -7159.99 73.7791
273 1 5.80953 40.7623 847.714 533.139 -9926.19 -3879.5 111.27
135 1 26.3724 40.5423 662.649 535.12 -6371.17 -6210.09 94.6375
74 1 79.9334 40.9954 180.599 531.041 -1128.37 -4715.89 62.3234
58 1 113.384 40.7601 -120.454 533.159 2176.11 -6058.54 60.7329
86 1 117.358 42.0353 -156.225 521.683 1290.64 -5863.36 60.508
35 1 177.262 43.8018 -695.359 505.784 7472.83 -6659.75 95.5388
223 1 107.113 44.7014 -64.0151 497.688 2061.3 -3274.9 55.7542
14 1 86.4667 45.817 121.8 487.647 -2601.53 -6280.85 55.8475
292 1 194.041 45.4705 -846.368 490.766 8039.09 -4123.4 108.707
111 1 114.788 47.1262 -133.095 475.864 -252.296 -3443.45 54.9029
131 1 96.3556 47.7702 32.8 470.069 403.963 -6135.74 52.3568
251 1 136.458 47.4389 -328.121 473.05 2506.05 -3189.83 63.9676
161 1 171.86 48.2011 -646.738 466.19 6187.23 -5549.99 88.583
69 1 19.0188 49.4601 728.831 454.859 -6594.29 -4967.76 95.458
179 1 39.308 49.0426 546.228 458.616 -5959.7 -4724.91 79.2476
118 1 75.4954 50.4105 220.542 446.306 -2706.66 -5321.14 55.3137
215 1 159.353 51.4528 -534.18 436.925 5323.66 -2724.81 76.6789
169 1 70.8308 52.8509 262.523 424.341 -3192.78 -4728.07 55.4426
149 1 57.9314 53.4206 378.617 419.215 -5251.76 -5683.17 62.7647
235 1 64.2027 53.9497 322.176 414.452 -2769.63 -3745.05 58.3273
260 1 155.093 53.291 -495.84 420.381 5239.89 -3282.69 72.2288
194 1 95.535 56.9938 40.1849 387.056 211.427 -2454.8 43.2374
158 1 168.814 57.4037 -619.326 383.367 5726.67 -5217.55 80.9309
22 1 72.7708 59.4353 245.062 365.083 -3364.84 -3022.33 48.8562
221 1 46.3652 60.5755 482.713 354.821 -4961.95 -3871.13 66.5656
36 1 93.8574 60.6092 55.2838 354.517 -1762.42 -2679.06 39.8669
20 1 42.2242 61.5032 519.983 346.471 -4296.29 -2134.6 69.4266
279 1 167.327 61.4172 -605.941 347.245 5294.66 -4699.01 77.5985
99 1 194.72 61.728 -852.481 344.448 8739.67 -2797.11 102.16
89 1 82.0648 62.5865 161.417 336.722 -1160.38 -3117.1 41.4903
46 1 144.86 62.8848 -403.74 334.037 4937.3 -4347.4 58.2234
115 1 74.1277 64.7302 232.85 317.428 -842.66 -3511.93 43.7417
217 1 37.75 64.8849 560.25 316.036 -6203.25 -2310.01 71.4712
8 1 119.728 65.0768 -177.55 314.309 2755.4 -3439.73 40.1101
199 1 174.693 65.8274 -672.237 307.553 8202.45 -3685.03 82.139
1 1 182.13 66.96 -739.174 297.36 7504 -4524.62 88.5272
11 1 188.485 67.0271 -796.365 296.756 8797.39 -2209.49 94.4288
28 1 134.555 67.5213 -310.996 292.308 1409.3 -4025.03 47.4228
167 1 146.229 67.0634 -416.059 296.429 5824.58 -2794.57 56.7619
70 1 169.053 69.1599 -621.475 277.561 7169.69 -2543.18 75.6267
128 1 66.0361 69.5196 305.675 274.324 -2867.35 -3341.51 45.6355
230 1 113.683 70.4468 -123.147 265.979 2470.88 -1882.34 32.5671
162 1 196.827 70.2934 -871.442 267.359 7838.64 -2437.21 101.281
127 1 89.0981 71.1991 98.1174 259.208 -2228.78 -3773.6 30.7952
177 1 175.919 70.9218 -683.271 261.704 8091.93 -4343.46 81.2972
271 1 60.1341 73.0879 358.793 242.209 -2462.81 -1584.27 48.0994
187 1 102.938 72.9753 -26.4388 243.223 1067.76 -4031.21 27.1839
144 1 85.6355 75.0874 129.281 224.214 -233.836 -1412.72 28.7573
213 1 93.0728 74.6327 62.3448 228.306 -54.1149 -1297.41 26.2961
247 1 120.657 75.3635 -185.909 221.729 1090.68 -1775.51 32.1505
298 1 188.985 76.2073 -800.868 214.134 6309.39 -1383.1 92.1112
283 1 3.45552 76.8957 868.9 207.938 -9767.87 -759.605 99.2706
132 1 20.6865 78.3916 713.821 194.475 -7126.86 -894.124 82.2043
246 1 145.504 78.5076 -409.532 193.432 3704.94 -2197.72 50.3239
72 1 159.855 78.2595 -538.692 195.664 5346.07 -604.802 63.6807
263 1 92.2163 78.8279 70.0536 190.549 -1129.82 -2643.25 22.5576
16 1 116.742 79.506 -150.676 184.446 -1.13933 -3089.87 26.463
227 1 169.696 79.8443 -627.264 181.402 6028.23 -420.166 72.5519
141 1 191.651 81.9835 -824.861 162.149 7980.74 -2729.81 93.4052
67 1 33.6694 82.4142 596.975 158.272 -6517.35 -3238.35 68.6222
103 1 85.5526 82.4069 130.027 158.338 -1885.38 -438.326 22.765
119 1 71.6299 83.3342 255.331 149.992 -4023.31 -2619.28 32.9031
282 1 125.084 83.6441 -225.754 147.203 2859.91 -1429.6 29.9451
276 1 178.966 85.8041 -710.696 127.763 8405.32 -2567 80.2321
232 1 9.32277 87.7866 816.095 109.92 -8458.38 -1883.92 91.496
175 1 0.81444 88.2964 892.67 105.333 -9472.23 -595.433 99.8737
77 1 82.221 88.7576 160.011 101.182 -2354.74 -151.02 21.0353
151 1 17.7361 90.0135 740.375 89.8781 -7510.22 379.045 82.8679
23 1 27.4225 89.7688 653.198 92.0807 -6333.51 -283.54 73.2951
137 1 191.759 89.9828 -825.829 90.1548 8696.04 -2483.39 92.304
25 1 127.345 91.101 -246.107 80.0909 3360.08 -657.69 28.7568
184 1 98.5597 92.0812 12.9631 71.2696 -1074.63 662.103 8.04878
176 1 160.01 92.6253 -540.092 66.3724 4417.75 23.0569 60.4617
297 1 72.9752 94.2691 243.223 51.5783 -2160.29 -2127.67 27.6258
275 1 56.3514 97.274 392.838 24.5342 -5240.17 -1363.41 43.7337
93 1 67.8585 97.2424 289.274 24.8184 -2993.92 -965.507 32.2596
178 1 76.4977 97.4545 211.52 22.9096 -2190.55 -1869.1 23.6397
218 1 154.798 97.8359 -493.186 19.4765 3601.92 -1094.55 54.8412
248 1 160.594 97.7026 -545.343 20.6765 4742.23 -568.119 60.6372
294 1 36.8477 98.8855 568.371 10.0303 -4156.21 -1752.39 63.1622
265 1 106.997 98.6543 -62.973 12.1113 1350.33 1233.49 7.12523
62 1 0.660416 99.612 894.056 3.49179 -9456.81 -465.92 99.3403
7 1 120.908 99.7606 -188.171 2.15503 3329.44 -1337.79 20.9093
277 1 126.025 100.217 -234.224 -1.95065 648.277 1288.92 26.0258
39 1 134.843 100.098 -313.584 -0.879503 2581.41 -983.897 34.8428
153 1 19.1171 101.366 727.946 -12.2902 -7937.34 -488.128 80.8944
146 1 64.2293 101.069 321.937 -9.61794 -3840.5 711.143 35.7867
281 1 184.87 102.608 -763.826 -23.4704 8245.56 -802.974 84.9096
258 1 38.0498 103.642 557.551 -32.7809 -6798.21 -1251.49 62.0571
233 1 95.0856 103.699 44.2296 -33.2913 -670.427 755.888 6.15095
182 1 118.04 103.304 -162.363 -29.7343 1633.83 -199.303 18.3403
165 1 156.929 103.489 -512.36 -31.4045 3875.75 1272.3 57.0357
9 1 25.2339 106.278 672.895 -56.5004 -8153.5 1084.45 75.0292
80 1 42.8813 105.69 514.068 -51.2142 -6407.7 -1154.94 57.4015
6 1 61.445 106.119 346.995 -55.0709 -1909.23 -352.455 39.0375
157 1 77.6882 106.089 200.806 -54.7986 -1407.04 416.035 23.1276
82 1 103.725 107.242 -33.5256 -65.1783 299.733 -180.41 8.1439
21 1 158.155 108.601 -523.394 -77.4088 5469.84 -254.986 58.7874
116 1 2.67214 110.701 875.951 -96.3106 -8321.64 2654.79 97.9144
242 1 16.8449 111.852 748.396 -106.665 -9005.05 1761.23 83.9955
253 1 91.9684 113.099 72.2843 -117.89 -1961.69 1453.35 15.3651
104 1 190.368 112.954 -813.311 -116.589 6855.53 412.353 91.2917
51 1 104.094 114.11 -36.8493 -126.991 921.424 799.956 14.6921
189 1 113.757 113.741 -123.813 -123.666 1556.41 638.711 19.4438
110 1 31.8269 114.493 613.558 -130.439 -7666.08 667.906 69.6967
222 1 194.271 114.882 -848.44 -133.94 7441.05 2471.33 95.4386
174 1 1.42309 117.912 887.192 -161.208 -7392.15 1666.27 100.191
159 1 47.1183 117.447 475.935 -157.024 -5540.68 1348.4 55.6855
83 1 93.9559 117.63 54.3965 -158.67 508.854 2864.78 18.6373
234 1 98.5493 118.86 13.0559 -169.741 -887.469 277.354 18.9158
43 1 187.227 121.301 -785.041 -191.711 8844.98 3390.12 89.7901
73 1 191.582 120.683 -824.239 -186.15 9072.73 342.34 93.8887
102 1 75.0951 122.513 224.145 -202.615 -2240.12 2005.3 33.5721
142 1 64.4567 123.521 319.89 -211.686 -1612.68 1852.78 42.621
108 1 23.1882 124.656 691.306 -221.902 -8321.28 1860.01 80.6719
38 1 104.393 124.816 -39.5325 -223.346 -252.966 3512.62 25.202
101 1 86.7213 125.443 119.508 -228.989 -1252.24 753.285 28.6998
299 1 129.418 125.862 -264.761 -232.758 2066.41 3042.48 39.1696
160 1 148.577 125.598 -437.189 -230.382 4538.82 1144.61 54.9084
240 1 44.1082 126.053 503.026 -234.473 -3356.16 2191.23 61.6655
55 1 82.8539 126.235 154.315 -236.115 -1637.72 888.91 31.3411
37 1 163.773 126.303 -573.954 -236.729 7424.96 3737.87 68.9841
52 1 113.556 128.135 -122 -253.212 2494.31 1482.21 31.23
152 1 182.622 128.128 -743.598 -253.151 8272.43 3466.55 87.2787
130 1 192.713 128.126 -834.417 -253.136 7464.66 1346.03 96.8854
50 1 175.113 129.118 -676.02 -262.061 8344.23 2964.95 80.5597
171 1 43.7277 131.164 506.451 -280.474 -5048.44 2151.77 64.3254
228 1 55.9012 131.124 396.889 -280.113 -4092.92 1817.34 53.9758
300 1 62.2202 135.394 340.018 -318.549 -2499.4 4054.97 51.7694
65 1 107.82 136.012 -70.3828 -324.105 -222.469 4069.17 36.851
224 1 159.108 135.924 -531.976 -323.313 4619.22 4534.7 69.1688
210 1 182.694 136.012 -744.245 -324.109 5931.23 1715.57 90.1951
117 1 33.3514 136.517 599.838 -328.655 -5108.31 3941.77 75.997
205 1 101.204 136.458 -10.8364 -328.118 1711.86 4131.26 36.4774
170 1 122.886 137.053 -205.97 -333.479 3516.36 1843.54 43.551
26 1 15.728 139.74 758.448 -357.66 -9116.38 5248.28 93.1721
4 1 21.178 139.009 709.398 -351.077 -5495.31 3081.22 87.9464
76 1 47.0482 139.109 476.566 -351.981 -4575.59 2387.83 65.8286
33 1 68.4322 139.777 284.11 -357.993 -1428.99 3115 50.7813
125 1 92.1604 139.577 70.5565 -356.197 42.3104 3723.99 40.3465
278 1 187.418 139.144 -786.765 -352.298 8825.73 3373.62 95.7822
66 1 31.8405 143.327 613.435 -389.942 -7690.1 2744.08 80.7647
19 1 102.168 142.699 -19.5147 -384.289 -326.908 5079.23 42.7538
202 1 135.964 142.795 -323.674 -385.159 3966.27 4020.18 55.9003
85 1 156.408 142.686 -507.668 -384.175 3867.28 4263.67 70.7384
150 1 0.841518 143.392 892.426 -390.527 -9492.02 2602.43 108.237
106 1 68.2896 143.999 285.393 -395.987 -4074.87 4705.07 54.2349
40 1 91.3753 143.903 77.6227 -395.123 -847.234 5370.71 44.7417
225 1 147.971 144.166 -431.737 -397.496 4656.5 4501.12 65.2062
268 1 163.381 143.433 -570.428 -390.896 5308.98 4521.23 76.8346
107 1 175.186 144.431 -676.67 -399.878 7424.25 2545.35 87.3326
91 1 7.11279 144.627 835.985 -401.643 -8166.22 5658.77 103.051
193 1 27.1878 144.537 655.31 -400.831 -6306.77 2701.05 85.3531
42 1 52.3202 145.488 429.118 -409.391 -5475.64 3452.19 65.8977
195 1 140.105 144.699 -360.945 -402.294 3354.43 5315.06 60.0536
53 1 62.9349 146.689 333.586 -420.203 -4442.61 2616.07 59.6129
27 1 156.658 147.414 -509.92 -426.725 4678.41 3967.3 73.8795
269 1 99.4437 150.235 5.00672 -452.115 288.698 5913.92 50.2381
126 1 171.949 150.055 -647.543 -450.493 6492.98 4932.67 87.648
207 1 178.756 149.188 -708.802 -442.696 5361.25 3421.03 92.8546
112 1 7.26785 150.814 834.589 -457.328 -8687.08 5783.27 105.742
192 1 43.3362 152.213 509.974 -469.916 -3750.99 3960.88 77.0517
88 1 138.439 151.996 -345.955 -467.964 2232.47 5812.67 64.662
181 1 37.9695 152.999 558.275 -476.989 -4777.21 5854.95 81.5884
197 1 2.32965 154.502 879.033 -490.519 -10250.6 5539.1 111.848
239 1 168.261 156.144 -614.346 -505.298 4984.24 5743.69 88.3837
296 1 27.9382 158.053 648.556 -522.481 -8126.91 6459.88 92.537
31 1 55.1412 158.137 403.729 -523.232 -3577 6934.13 73.4316
185 1 76.7988 157.32 208.811 -515.876 -2254.2 6111.53 61.8372
32 1 90.0671 157.562 89.3962 -518.058 -1238.56 3502.9 58.4127
54 1 172.14 159.301 -649.261 -533.712 7898.38 4128.24 93.3855
155 1 108.798 160.051 -79.1778 -540.463 -549.402 6056.92 60.6924
198 1 137.262 160.019 -335.357 -540.172 4599.38 6025.61 70.6452
211 1 117.639 161.206 -158.752 -550.854 -75.9368 6488.6 63.6971
122 1 191.751 161.191 -825.76 -550.715 7073.81 5381.98 110.284
226 1 180.863 162.21 -727.766 -559.891 8388.62 4989.59 102.024
79 1 81.7138 163.185 164.576 -568.667 -1226.85 4358.82 65.7781
61 1 143.831 163.672 -394.477 -573.05 4581.44 5777.16 77.3
78 1 91.198 165.21 79.2178 -586.889 -1456.34 6072.83 65.8012
148 1 130.11 164.625 -270.993 -581.623 2811.6 5732.26 71.2952
203 1 15.7652 165.4 758.113 -588.603 -8259.66 6655.75 106.643
291 1 107.287 166.869 -65.5799 -601.82 -763.243 6861.89 67.2647
163 1 142.641 167.62 -383.769 -608.577 2217.78 7398.36 79.9417
214 1 85.5815 168.185 129.767 -613.664 -895.764 4826.83 69.6927
63 1 100.67 169.088 -6.0345 -621.793 -162.43 5881.87 69.0914
208 1 117.247 168.813 -155.222 -619.313 850.389 6808.71 70.941
191 1 38.9701 171.012 549.269 -639.105 -5307.88 6233.35 93.6339
290 1 13.933 172.043 774.603 -648.39 -8531.13 7470.19 112.24
216 1 188.622 171.234 -797.599 -641.105 9590.01 7986.02 113.702
109 1 197.737 172.22 -879.636 -649.977 9157.57 6490.11 121.525
120 1 116.307 172.651 -146.763 -653.86 2820.78 7772.86 74.4588
252 1 124.268 172.388 -218.412 -651.495 1182.27 6428.4 76.3479
259 1 146.652 173.252 -419.864 -659.266 2964.18 5630.84 86.8458
68 1 18.6455 175.251 732.19 -677.257 -6650.97 8309 110.821
288 1 28.5938 176.659 642.655 -689.935 -5131.87 6295.46 104.764
47 1 65.8283 176.692 307.545 -690.231 -3709.35 5170.4 83.9608
206 1 73.7536 176.106 236.218 -684.957 -1513.09 6641.54 80.505
244 1 151.816 176.133 -466.346 -685.198 3992.81 5531.39 92.0933
56 1 106.561 177.848 -59.0528 -700.633 -349.985 5336.82 78.1242
18 1 127.112 177.354 -244.011 -696.19 1438.02 8082.56 81.9682
267 1 176.996 178.029 -692.967 -702.257 6336.29 6914.58 109.622
3 1 184.624 177.49 -761.617 -697.408 6003.49 6720.9 114.743
295 1 62.08 178.281 341.28 -704.532 -3334.29 7676.41 86.9822
92 1 80.8579 178.747 172.279 -708.726 -2868.05 7123.89 81.0405
57 1 139.191 178.368 -352.716 -705.315 3230.58 8455.73 87.6214
34 1 5.11572 179.945 853.958 -719.504 -8585.25 5641.78 124.073
262 1 9.31634 179.648 816.153 -716.833 -7827.88 8499.98 120.695
255 1 144.236 180.034 -398.127 -720.31 4587.21 7118.72 91.446
134 1 18.1342 181.55 736.792 -733.949 -8773.45 8952.83 115.553
94 1 27.547 182.628 652.077 -743.648 -5795.8 7429.62 109.894
166 1 190.36 181.65 -813.241 -734.848 8688.28 7991.93 121.785
121 1 51.5727 182.764 435.845 -744.878 -4415.72 7899.82 95.8912
286 1 170.297 183.97 -632.674 -755.733 4893.85 8650.58 109.511
220 1 66.7927 185.687 298.865 -771.182 -2510.61 8457.5 91.8965
95 1 135.24 185.673 -317.164 -771.061 3319.39 6662.99 92.6382
154 1 179.924 185.585 -719.318 -770.264 5504.12 8588.09 117.101
90 1 151.793 187.112 -466.138 -784.012 5310.02 8869.84 101.346
2 1 189.884 186.173 -808.959 -775.557 7326.14 6698.55 124.519
96 1 112.012 187.776 -108.109 -789.986 2787.25 6958.61 88.5944
266 1 131.171 188.131 -280.537 -793.175 1963.27 9064.19 93.4805
249 1 18.1823 189.369 736.36 -804.32 -7779.16 7543.97 121.165
71 1 6.12781 190.09 844.85 -810.814 -6810.76 6983 130.109
139 1 142.607 189.713 -383.46 -807.415 4886.05 9410.58 99.3162
245 1 27.4999 191.544 652.501 -823.9 -5764.59 7855.42 116.776
188 1 32.6882 191.22 605.806 -820.976 -4948.61 9218.36 113.366
136 1 60.6766 191.775 353.911 -825.979 -4890.07 7316.09 99.8452
173 1 121.616 191.782 -194.54 -826.034 1838.65 7284.53 94.2925
147 1 171.452 190.899 -643.066 -818.093 7100.54 9873.58 115.62
172 1 186.136 191.343 -775.226 -822.09 7722.46 7832.3 125.551
257 1 9.87641 192.9 811.112 -836.099 -6507.83 7614.08 129.432
114 1 52.0731 192.078 431.342 -828.698 -5570.12 9937.84 103.804
123 1 128.934 195.066 -260.407 -855.592 2739.81 9589.99 99.3715
29 1 152.9 195.803 -476.103 -862.23 5257.64 8504.09 109.438
293 1 163.098 196.358 -567.886 -867.222 4115.56 9814.46 115.179
241 1 34.0094 196.659 593.915 -869.934 -4343.55 7601.79 117.037
285 1 180.603 197.428 -725.429 -876.855 7077.23 9796.36 126.448
272 1 198.584 197.136 -887.254 -874.221 9247.09 10384.1 138.398
ITEM: TIMESTEP
100
ITEM: NUMBER OF ATOMS
300
ITEM: BOX BOUNDS ff ff pp
0.0000000000000000e+00 2.0000000000000000e+02
0.0000000000000000e+00 2.0000000000000000e+02
-5.0000000000000000e-01 5.0000000000000000e-01
ITEM: ATOMS id type x y vx vy fx fy v_dist
236 1 182.761 9.10282 -737.193 808.183 8533.88 -9608.44 122.93
183 1 50.7335 10.0068 440.111 803.165 -3589.37 -8749.13 102.596
209 1 102.819 9.99306 -25.6895 800.933 -1003.58 -8972.98 90.0511
243 1 78.6507 11.6444 190.818 787.093 -724.742 -6678.91 90.8983
219 1 82.8426 10.8805 153.507 794.457 -2276.35 -8100.34 90.7561
24 1 17.0751 11.7819 738.359 785.48 -7079.57 -7967.47 121.074
280 1 170.561 12.4448 -627.103 779.787 5326.58 -6169.69 112.449
49 1 177.75 13.2879 -692.153 770.895 7580.85 -9212.48 116.465
129 1 56.9658 14.0271 381.786 764.819 -5101.53 -8606.91 96.142
256 1 96.2829 14.4437 32.9636 760.399 -487.48 -6102.65 85.637
250 1 186.205 14.425 -767.154 763.636 8930.14 -7938.59 121.468
81 1 20.5042 16.9743 709.515 740.195 -8116.48 -6004.07 114.947
64 1 59.8788 16.2151 356.95 745.813 -3892.48 -8894.13 92.8957
201 1 69.6946 16.8408 270.111 741.186 -3946.61 -7130.92 88.5092
87 1 30.0551 17.5913 622.221 733.677 -4886.53 -9018.25 108.09
133 1 82.5146 17.6754 155.834 732.275 -149.746 -8007.47 84.161
105 1 113.606 18.8633 -119.947 723.214 1226.73 -7076.81 82.2696
264 1 120.366 18.6584 -181.486 724.084 3513.74 -7540.22 83.8523
60 1 135.796 18.475 -316.978 727.258 3071.77 -8891.05 89.0375
231 1 89.0444 20.1267 96.9517 711.939 -90.2763 -5712.98 80.6212
100 1 129.126 19.5115 -260.365 716.524 2954.92 -6289.19 85.5962
59 1 142.996 19.6971 -382.385 715.429 4920.84 -8830.83 91.089
229 1 171.442 19.6425 -635.992 715.548 5321.28 -8092.82 107.524
289 1 56.9289 20.6668 383.133 708.403 -4660.91 -6413.44 90.2711
75 1 125.594 20.3238 -225.786 709.103 2812.77 -6982.44 83.686
168 1 84.9403 22.0645 134.999 692.11 -621.904 -6077.11 79.3772
124 1 105.883 21.4602 -53.2575 700.875 417.718 -7984.72 78.7598
15 1 113.684 22.5254 -121.584 690.164 115.11 -7828.09 78.6738
284 1 182.882 23.0224 -738.509 685.385 7291.55 -6964.49 113.115
84 1 43.5711 23.6166 503.194 681.25 -5946.82 -7288.83 94.9665
164 1 175.228 24.2956 -669.174 674.262 7124.4 -7966.56 106.726
30 1 84.8973 25.8594 133.336 660.802 -55.9849 -7905.72 75.6632
12 1 92.992 26.2861 63.3839 657.698 -760.637 -7793.13 74.0463
13 1 109.854 26.4013 -88.8398 654.01 1449.02 -7566.1 74.2554
145 1 46.751 26.5813 475.456 652.751 -4726.54 -6507.77 90.696
45 1 37.7049 28.7745 554.689 632.669 -5779.7 -5480.69 94.6243
48 1 59.7056 28.7513 357.938 636.579 -3692.6 -6906.35 81.8536
180 1 104.199 29.5302 -36.9421 627.586 -517.675 -6129.06 70.5948
190 1 69.845 30.3245 267.972 620.57 -2082.41 -6089.96 75.921
44 1 23.821 31.4942 678.507 610.646 -6789.07 -7383.85 102.451
212 1 90.623 32.1878 84.2543 603.579 -2481.73 -7611.37 68.4575
41 1 9.03975 33.6575 809.24 591.169 -7485.38 -4341.82 112.584
200 1 60.1475 34.798 353.887 579.497 -2813.38 -4919.58 76.4167
238 1 28.583 36.515 635.275 565.281 -6640.76 -5857.76 95.5549
204 1 18.3318 37.3146 726.424 556.819 -8205.18 -3992.98 102.952
97 1 168.157 37.6962 -605.77 553.949 5212.61 -4659.28 92.3424
261 1 78.6328 38.6342 192.387 546.573 -1434.89 -5009.52 64.9793
270 1 83.4286 38.4501 146.024 548.881 -1753.42 -5756.32 63.7416
138 1 119.422 39.0734 -173.247 543.186 26.7585 -6495.7 63.9474
140 1 127.139 38.571 -240.799 548.461 4026.39 -7026.89 67.1569
287 1 92.474 39.3538 65.607 539.945 622.583 -6072.4 61.1114
143 1 144.744 39.787 -396.178 535.708 3336.36 -6933.29 75.0175
5 1 52.9306 41.0851 417.901 526.681 -3212.12 -5789.96 75.4088
10 1 112.231 40.3986 -107.995 532.325 2399.05 -6587.61 60.8434
98 1 131.186 40.6191 -278.435 527.265 1626.79 -6319.79 67.0722
17 1 171.966 40.5952 -642.263 529.771 7698.48 -6637.16 93.317
237 1 182.41 40.7571 -733.068 527.779 7848.93 -6721.59 101.495
196 1 67.5094 42.8097 289.873 508.064 -3527.68 -4651.66 65.7751
274 1 71.4486 43.2204 254.899 505.727 -2351.71 -3474.78 63.5539
156 1 177.232 42.433 -689.365 513.313 6455.69 -5921.36 96.3261
186 1 21.5428 44.303 700.874 496.704 -5511.72 -6453.49 96.2168
254 1 87.5665 44.3653 112.431 494.012 430.33 -3382.81 57.0071
113 1 61.2646 44.7773 344.97 492.556 -2603.8 -3304.11 67.4535
273 1 13.8833 45.8344 766.754 482.556 -7852.24 -5589.17 101.735
135 1 32.6859 45.6306 600.348 484.351 -7092.31 -4996.81 86.5287
74 1 81.6578 46.0526 164.609 482.288 -2949.61 -3233.03 56.9803
58 1 112.234 45.8285 -109.897 480.976 216.213 -5638.2 55.5357
86 1 115.875 47 -141.031 473.171 2074.98 -4442.52 55.3265
35 1 170.642 48.6141 -628.556 457.808 6966.38 -4769.22 87.3542
223 1 106.503 49.4267 -57.7914 448.863 -595.069 -5335.4 50.9897
14 1 87.6253 50.4634 110.419 443.144 -2628.88 -3602.38 51.0589
292 1 185.992 50.143 -764.64 444.657 7934.77 -5699.31 99.3999
111 1 113.515 51.649 -121.954 430.403 2422.83 -5510.44 50.2042
131 1 96.6604 52.2437 28.373 424.871 -1757.35 -5450.22 47.8729
251 1 133.338 51.9387 -296.363 428.461 1324.28 -5165.65 58.4921
161 1 165.699 52.6371 -586.279 421.804 4248.21 -5447.8 80.9913
69 1 25.957 53.7949 659.933 412.53 -6696.87 -3022.47 87.277
179 1 44.5008 53.4001 493.904 413.862 -3864.49 -2709.11 72.4687
118 1 77.5997 54.6532 200.65 402.792 -1183.52 -4558.72 50.5777
215 1 154.261 55.6139 -485.028 396.348 5195.39 -3522.56 70.1029
169 1 73.3357 56.8959 238.948 386.161 -1263.37 -2905.42 50.6848
149 1 61.5325 57.4069 342.799 378.704 -3208.67 -3363.67 57.3927
235 1 67.2638 57.8925 290.522 375.425 -1424.16 -3768.1 53.3357
260 1 150.367 57.2863 -450.072 379.49 3142 -4487.74 66.0399
194 1 95.9044 60.6806 34.7806 351.013 833.286 -4792.16 39.5321
158 1 162.919 61.0546 -560.348 347.272 4532.41 -3451.96 73.9969
22 1 75.1 62.9141 220.614 331.368 -1154.37 -4147.94 44.6696
221 1 50.9649 63.9404 438.336 319.468 -5056.63 -2656.15 60.8665
36 1 94.3871 63.9784 50.3769 319.687 -1962.6 -2469.42 36.4563
20 1 47.1757 64.8015 470.714 313.594 -3950.24 -3770.99 63.4771
279 1 161.561 64.7233 -547.906 314.999 4837.27 -2657.02 70.9523
99 1 186.606 65.007 -772.243 311.606 9364.56 -2504.58 93.4086
89 1 83.6022 65.7918 146.196 305.488 -699.541 -2149.41 37.9353
46 1 141.029 66.0653 -363.906 302.897 4709.19 -3812.39 53.2443
115 1 76.3426 67.7489 210.44 287.148 -3176.49 -2409.76 39.9976
217 1 43.081 67.8891 506.592 285.121 -5474.42 -1554.96 65.3519
8 1 118.04 68.0646 -160.1 283.59 2711.64 -2473.72 36.6783
199 1 168.3 68.7583 -608.151 279.001 6820.12 -3970.39 75.1062
1 1 175.109 69.7926 -667.295 269.444 6438.65 -3554.45 80.9556
11 1 180.913 69.8547 -719.019 269.239 8772.14 -4374.87 86.3466
28 1 131.595 70.3011 -280.9 264.369 1398.82 -1676.23 43.3621
167 1 142.275 69.8889 -375.865 269.084 4617.78 -3428.72 51.9027
70 1 163.137 71.8009 -562.643 251.413 5644.6 -2447.6 69.1485
128 1 68.9425 72.1313 276.79 247.849 -3216.51 -3078.04 41.7281
230 1 112.515 72.9806 -110.971 241.223 1219.07 -2585.53 29.7769
162 1 188.537 72.8422 -787.283 242.701 8267.07 -1793.39 92.6083
127 1 90.032 73.6736 88.9589 235.532 -860.194 -1449.85 28.1503
177 1 169.423 73.407 -617.858 235.77 5106.99 -2675.67 74.3422
271 1 63.5452 75.3879 324.073 218.012 -2954.63 -1612.96 43.9853
187 1 102.689 75.2866 -22.6534 219.364 -577.613 -2956.39 24.8593
144 1 86.8636 77.216 116.031 201.764 -1683.65 -937.19 26.2997
213 1 93.6627 76.8001 55.5553 205.617 -828.533 -2833.28 24.0499
247 1 118.89 77.4789 -168.288 201.916 1374.42 -2487.14 29.3943
298 1 181.352 78.2461 -725.713 194.416 5922.61 -2849.01 84.2104
283 1 11.7222 78.8717 786.051 188.531 -7514.22 -3043.38 90.771
132 1 27.4791 80.2553 645.394 177.656 -6288.36 -1476.12 75.1607
246 1 141.605 80.3432 -371.044 173.991 4920.7 -1884.97 46.0147
72 1 154.729 80.1264 -486.847 176.991 4100.2 -3168.27 58.226
263 1 92.8815 80.6415 63.738 172.674 -1089.84 -1955.71 20.6258
16 1 115.315 81.2689 -135.642 167.864 2592.63 -3242.91 24.1953
227 1 163.721 81.5725 -568.114 163.765 6696.42 -1385.83 66.3323
141 1 183.799 83.5278 -746.86 146.949 6367.93 -3023.69 85.4024
67 1 39.3484 83.9216 540.023 143.675 -5232.8 -1263.5 62.7466
103 1 86.7966 83.9203 118.548 145.002 -1691.58 -1483.92 20.8059
119 1 74.0604 84.7557 231.398 135.327 -1925.21 -551.652 30.0875
282 1 122.935 85.0325 -203.883 131.543 2638.31 -2136.21 27.3871
276 1 172.2 87.0148 -643.156 114.427 6795.81 -834.603 73.358
232 1 17.0968 88.8242 739.789 98.5031 -8970.6 -1745.53 83.6531
175 1 9.30637 89.3009 807.139 95.5645 -7344.36 -1127.85 91.3225
77 1 83.7437 89.7106 144.271 90.6585 -2722.62 -1348.74 19.239
151 1 24.7918 90.8701 671.022 81.3393 -7166.35 380.283 75.7603
23 1 33.6352 90.6424 590.909 82.4484 -6878.44 -1811.71 67.0213
137 1 183.902 90.8455 -746.351 82.5076 8482.65 -1722.48 84.4004
25 1 125.006 91.8684 -222.325 73.7964 3781.23 179.758 26.2947
184 1 98.6932 92.7533 13.518 63.3977 -934.143 922.719 7.36362
176 1 154.872 93.2556 -487.647 60.456 5360.31 927.771 55.2847
297 1 75.2886 94.7638 220.653 47.8992 -2092.46 1051.02 25.2601
275 1 60.0937 97.5091 356.039 22.7307 -2377.95 -1726.85 39.984
93 1 70.6136 97.4842 262.059 23.4133 -1700.31 249.771 29.4939
178 1 78.5134 97.6809 192.154 22.0889 -2934.94 -156.105 21.6114
218 1 150.104 98.0149 -446.754 17.0893 3722.56 -654.542 50.1433
248 1 155.403 97.8989 -493.833 18.7776 3552.15 1328.97 55.4432
294 1 42.247 98.9948 512.088 11.9392 -4568.56 -1775.53 57.7617
265 1 106.392 98.7698 -58.3585 11.0733 1152.65 -332.962 6.50887
62 1 9.16422 99.6467 808.879 3.64963 -8543.33 -836.693 90.8365
7 1 119.124 99.7815 -169.299 2.73957 603.269 -1221.7 19.1255
277 1 123.796 100.2 -210.969 -0.98486 852.315 -1652.5 23.797
39 1 131.869 100.091 -281.893 0.467333 2015.09 -572.396 31.8686
153 1 26.0423 101.246 658.483 -11.4312 -6151.99 1435.11 73.9682
146 1 67.2949 100.976 291.151 -8.7986 -3698.86 -1280.12 32.7196
281 1 177.607 102.391 -691.029 -20.8985 5910.65 852.301 77.6439
258 1 43.3573 103.325 504.949 -30.4304 -5063.89 1002.97 56.7402
233 1 95.4957 103.39 38.5049 -29.3061 -1655.91 41.8848 5.6375
182 1 116.503 103.011 -145.194 -28.8339 818.486 -1087.58 16.7753
165 1 152.045 103.198 -464.635 -27.0719 4463.4 9.09479 52.1434
9 1 31.6349 105.748 608.694 -49.6326 -6738.14 1410.85 68.6063
80 1 47.7709 105.204 464.899 -46.042 -4633.04 483.65 52.4877
6 1 64.7531 105.596 315.205 -48.7387 -3419.44 -993.6 35.6884
157 1 79.6011 105.564 181.884 -49.6753 -493.603 -1042.62 21.1441
82 1 103.4 106.616 -31.1265 -60.1569 -302.652 -28.0789 7.43875
21 1 153.185 107.866 -472.32 -69.809 4564.69 -577.861 53.7633
116 1 11.0091 109.782 793.698 -87.1881 -6300.93 302.555 89.5269
242 1 23.9613 110.844 676.444 -94.9494 -5097.06 2424.99 76.8081
253 1 92.6465 111.978 64.0644 -106.952 -2033.32 800.477 14.055
104 1 182.633 111.852 -735.716 -104.034 5750.53 1696.99 83.479
51 1 103.751 112.901 -33.0186 -114.588 824.764 2503.42 13.4352
189 1 112.582 112.559 -111.452 -112.986 2215.72 229.264 17.7773
110 1 37.6538 113.24 553.442 -121.098 -3958.53 301.156 63.7365
222 1 186.195 113.599 -768.068 -122.148 6245.16 2723.34 87.2616