ITEM: TIMESTEP
0
ITEM: NUMBER OF ATOMS
200
ITEM: BOX BOUNDS ff ff pp
0.0000000000000000e+00 2.0000000000000000e+02
0.0000000000000000e+00 2.0000000000000000e+02
-5.0000000000000000e-01 5.0000000000000000e-01
ITEM: ATOMS id type x y vx vy fx fy v_dist
183 1 46.1118 1.56392 484.994 885.925 -3851.94 -8931.5 112.221
24 1 9.30586 3.51568 816.247 868.359 -8325.73 -8239.61 132.418
49 1 185.03 5.17366 -765.273 853.437 6622.25 -8170.8 127.366
129 1 52.9426 5.97822 423.517 846.196 -4727.62 -9192.19 105.14
81 1 13.0546 9.18486 782.508 817.336 -6265.78 -7297.9 125.725
64 1 56.12 8.36987 394.92 824.671 -2918.75 -6782.47 101.595
87 1 23.5027 9.8796 688.476 811.084 -6485.89 -6414.48 118.21
133 1 80.8717 9.96492 172.155 810.316 -1162.75 -6418.79 92.0446
105 1 114.869 11.2671 -133.825 798.596 1320.94 -8215.05 89.9702
60 1 139.145 10.8285 -352.305 802.544 5100.62 -9387.04 97.3853
100 1 131.862 11.9731 -286.762 792.242 1470.84 -6848.95 93.616
59 1 147.023 12.1688 -423.205 790.481 4805.7 -7073.69 99.6266
75 1 127.983 12.8637 -251.848 784.226 3431.04 -6277.81 91.5193
168 1 83.5256 14.7772 148.27 767.006 -1113.98 -8771.1 86.8006
124 1 106.445 14.0994 -58.0012 773.105 643.253 -8667.37 86.142
15 1 114.965 15.2643 -134.684 762.622 168.132 -9007.03 86.0471
84 1 38.2826 16.4544 555.456 751.91 -5950.08 -6914.92 103.87
164 1 182.27 17.203 -740.433 745.173 6603.21 -6060.32 116.721
30 1 83.4901 18.9103 148.589 729.808 -267.105 -5941.91 82.7534
12 1 92.3317 19.3746 69.0144 725.629 284.432 -8319.85 80.9893
13 1 110.788 19.5175 -97.095 724.343 167.529 -8899.11 81.2024
145 1 41.7576 19.7098 524.182 722.612 -4191.63 -7002.58 99.1902
45 1 31.869 22.1128 613.179 700.985 -7521.84 -7467.92 103.481
48 1 55.9423 22.0622 396.519 701.441 -3465.18 -7539.59 89.5287
180 1 104.589 22.9234 -41.2986 693.69 733.744 -6967.32 77.2131
190 1 67.0211 23.7979 296.81 685.819 -1506.05 -7167.39 83.0323
44 1 16.685 25.0764 749.835 674.313 -7137.78 -6637.17 112.049
41 1 0.525224 27.4448 895.273 652.996 -8501.29 -7689.25 123.124
200 1 56.4187 28.6993 392.232 641.706 -3607.21 -6167.51 83.5651
97 1 174.536 31.8613 -670.827 613.248 5645.67 -7164.45 100.988
138 1 121.237 33.3668 -191.135 599.699 668.132 -6504.31 69.9357
140 1 129.674 32.8117 -267.067 604.695 3941.82 -5543.91 73.4495
143 1 148.928 34.1515 -440.353 592.636 4460.89 -5690.92 82.0365
5 1 48.5295 35.5566 463.234 579.991 -5612.93 -4766.88 82.4752
10 1 113.372 34.803 -120.344 586.773 -27.1043 -4357.61 66.5541
98 1 134.113 35.0704 -307.016 584.366 1484.51 -6477.15 73.3453
17 1 178.713 35.0259 -708.42 584.767 6033.22 -6337.52 102.066
196 1 64.4635 37.4585 319.829 562.874 -1938.5 -5785.38 71.9325
156 1 184.473 37.0425 -760.257 566.617 7583.77 -7376.05 105.353
186 1 14.1869 39.0831 772.318 548.252 -8114.51 -7164.09 105.237
113 1 57.6331 39.598 381.302 543.618 -4855.83 -5135.13 73.7791
135 1 26.3724 40.5423 662.649 535.12 -6186.43 -6166.8 94.6375
74 1 79.9334 40.9954 180.599 531.041 -3419.93 -5369.41 62.3234
58 1 113.384 40.7601 -120.454 533.159 502.045 -5339.46 60.7329
86 1 117.358 42.0353 -156.225 521.683 1504.88 -4406.15 60.508
35 1 177.262 43.8018 -695.359 505.784 8042.06 -3990.9 95.5388
14 1 86.4667 45.817 121.8 487.647 -2045.65 -4158.27 55.8475
111 1 114.788 47.1262 -133.095 475.864 773.223 -4148.82 54.9029
131 1 96.3556 47.7702 32.8 470.069 -988.155 -5827.77 52.3568
161 1 171.86 48.2011 -646.738 466.19 7345.5 -3364.14 88.583
69 1 19.0188 49.4601 728.831 454.859 -7072.37 -3446.13 95.458
179 1 39.308 49.0426 546.228 458.616 -5470.99 -4433.31 79.2476
118 1 75.4954 50.4105 220.542 446.306 -2282.83 -3694.34 55.3137
169 1 70.8308 52.8509 262.523 424.341 -3803.77 -4564.58 55.4426
149 1 57.9314 53.4206 378.617 419.215 -3194.21 -5727.46 62.7647
194 1 95.535 56.9938 40.1849 387.056 -1569.59 -3057.15 43.2374
158 1 168.814 57.4037 -619.326 383.367 5217.76 -2178.57 80.9309
22 1 72.7708 59.4353 245.062 365.083 -1494.57 -2692.57 48.8562
36 1 93.8574 60.6092 55.2838 354.517 -928.142 -2302.82 39.8669
20 1 42.2242 61.5032 519.983 346.471 -3643.42 -2581.47 69.4266
99 1 194.72 61.728 -852.481 344.448 7400.4 -3845.2 102.16
89 1 82.0648 62.5865 161.417 336.722 81.6476 -3673.14 41.4903
46 1 144.86 62.8848 -403.74 334.037 5647.03 -5064.18 58.2234
115 1 74.1277 64.7302 232.85 317.428 -3777.55 -1722.39 43.7417
8 1 119.728 65.0768 -177.55 314.309 2030.82 -4001.98 40.1101
199 1 174.693 65.8274 -672.237 307.553 7400 -2481.01 82.139
1 1 182.13 66.96 -739.174 297.36 8363.32 -3700.55 88.5272
11 1 188.485 67.0271 -796.365 296.756 7692.03 -3614.09 94.4288
28 1 134.555 67.5213 -310.996 292.308 3629.21 -4524.99 47.4228
167 1 146.229 67.0634 -416.059 296.429 5581.74 -1262.32 56.7619
70 1 169.053 69.1599 -621.475 277.561 4831.21 -4179.99 75.6267
128 1 66.0361 69.5196 305.675 274.324 -3481.34 -1958.98 45.6355
162 1 196.827 70.2934 -871.442 267.359 7131.18 -1358.4 101.281
127 1 89.0981 71.1991 98.1174 259.208 -249.211 -4027.13 30.7952
177 1 175.919 70.9218 -683.271 261.704 6057.55 -1076.37 81.2972
187 1 102.938 72.9753 -26.4388 243.223 -15.764 -3320.32 27.1839
144 1 85.6355 75.0874 129.281 224.214 -598.797 -2661.3 28.7573
132 1 20.6865 78.3916 713.821 194.475 -7635.63 -2083.5 82.2043
72 1 159.855 78.2595 -538.692 195.664 4885.69 -2814.72 63.6807
16 1 116.742 79.506 -150.676 184.446 1488.62 -200.019 26.463
141 1 191.651 81.9835 -824.861 162.149 7681.06 -2106.14 93.4052
67 1 33.6694 82.4142 596.975 158.272 -7435.34 -3073.74 68.6222
103 1 85.5526 82.4069 130.027 158.338 -848.135 -1183.91 22.765
119 1 71.6299 83.3342 255.331 149.992 -2271.82 -578.812 32.9031
175 1 0.81444 88.2964 892.67 105.333 -8313.42 362.43 99.8737
77 1 82.221 88.7576 160.011 101.182 -2066.7 -2395.7 21.0353
151 1 17.7361 90.0135 740.375 89.8781 -8317.97 -270.283 82.8679
23 1 27.4225 89.7688 653.198 92.0807 -6666.8 -1243.73 73.2951
137 1 191.759 89.9828 -825.829 90.1548 7048.71 -35.4387 92.304
25 1 127.345 91.101 -246.107 80.0909 3364.6 529.199 28.7568
184 1 98.5597 92.0812 12.9631 71.2696 -894.382 -1939.25 8.04878
176 1 160.01 92.6253 -540.092 66.3724 5615.78 -16.3553 60.4617
93 1 67.8585 97.2424 289.274 24.8184 -2438.95 1.93461 32.2596
178 1 76.4977 97.4545 211.52 22.9096 -1215.3 -1236.13 23.6397
62 1 0.660416 99.612 894.056 3.49179 -7454.72 -372.567 99.3403
7 1 120.908 99.7606 -188.171 2.15503 1280.96 828.793 20.9093
39 1 134.843 100.098 -313.584 -0.879503 4115.73 -287.84 34.8428
153 1 19.1171 101.366 727.946 -12.2902 -5799.38 -486.599 80.8944
146 1 64.2293 101.069 321.937 -9.61794 -3107.11 -1454.84 35.7867
182 1 118.04 103.304 -162.363 -29.7343 2457.36 1055.42 18.3403
165 1 156.929 103.489 -512.36 -31.4045 3422.94 -787.907 57.0357
9 1 25.2339 106.278 672.895 -56.5004 -5064.96 734.725 75.0292
80 1 42.8813 105.69 514.068 -51.2142 -4185.74 744.576 57.4015
6 1 61.445 106.119 346.995 -55.0709 -3280.55 -47.5604 39.0375
157 1 77.6882 106.089 200.806 -54.7986 -768.653 1325.43 23.1276
82 1 103.725 107.242 -33.5256 -65.1783 -540.532 888.163 8.1439
21 1 158.155 108.601 -523.394 -77.4088 3986.33 -407.432 58.7874
116 1 2.67214 110.701 875.951 -96.3106 -7500.29 -763.32 97.9144
104 1 190.368 112.954 -813.311 -116.589 9258.24 2003.71 91.2917
51 1 104.094 114.11 -36.8493 -126.991 1171.87 -329.078 14.6921
189 1 113.757 113.741 -123.813 -123.666 2297.1 2066.08 19.4438
110 1 31.8269 114.493 613.558 -130.439 -5566.25 2290.04 69.6967
174 1 1.42309 117.912 887.192 -161.208 -9640.34 2053.86 100.191
159 1 47.1183 117.447 475.935 -157.024 -6458.64 2328.49 55.6855
83 1 93.9559 117.63 54.3965 -158.67 -1622.83 2906.48 18.6373
43 1 187.227 121.301 -785.041 -191.711 7861.77 2967.74 89.7901
73 1 191.582 120.683 -824.239 -186.15 7852.01 1598.1 93.8887
102 1 75.0951 122.513 224.145 -202.615 -2282.3 3378 33.5721
142 1 64.4567 123.521 319.89 -211.686 -3628.18 1379.09 42.621
108 1 23.1882 124.656 691.306 -221.902 -8420.96 973.611 80.6719
38 1 104.393 124.816 -39.5325 -223.346 150.917 3627.31 25.202
101 1 86.7213 125.443 119.508 -228.989 -1462.95 1181.57 28.6998
160 1 148.577 125.598 -437.189 -230.382 3824.28 648.195 54.9084
55 1 82.8539 126.235 154.315 -236.115 -2128.26 3506.21 31.3411
37 1 163.773 126.303 -573.954 -236.729 4269.53 1247.93 68.9841
52 1 113.556 128.135 -122 -253.212 1822.36 2574.55 31.23
152 1 182.622 128.128 -743.598 -253.151 8734.34 1242.14 87.2787
130 1 192.713 128.126 -834.417 -253.136 8046.74 1746.64 96.8854
50 1 175.113 129.118 -676.02 -262.061 6214.66 3078.5 80.5597
171 1 43.7277 131.164 506.451 -280.474 -5819.14 3665.54 64.3254
65 1 107.82 136.012 -70.3828 -324.105 597.359 4518.88 36.851
117 1 33.3514 136.517 599.838 -328.655 -5799.91 3923.82 75.997
170 1 122.886 137.053 -205.97 -333.479 2497.44 1752.94 43.551
26 1 15.728 139.74 758.448 -357.66 -6685.47 3719.82 93.1721
4 1 21.178 139.009 709.398 -351.077 -8038.97 4885.57 87.9464
76 1 47.0482 139.109 476.566 -351.981 -5748.84 4206.59 65.8286
33 1 68.4322 139.777 284.11 -357.993 -2569.16 1968.04 50.7813
125 1 92.1604 139.577 70.5565 -356.197 -2017.36 2443.9 40.3465
66 1 31.8405 143.327 613.435 -389.942 -6235.53 3182.09 80.7647
19 1 102.168 142.699 -19.5147 -384.289 119.799 2202.89 42.7538
85 1 156.408 142.686 -507.668 -384.175 3746.74 2941.96 70.7384
150 1 0.841518 143.392 892.426 -390.527 -9635.46 3543.92 108.237
106 1 68.2896 143.999 285.393 -395.987 -1326.43 2307.79 54.2349
40 1 91.3753 143.903 77.6227 -395.123 -55.6235 5305.83 44.7417
107 1 175.186 144.431 -676.67 -399.878 6250.46 3567.78 87.3326
91 1 7.11279 144.627 835.985 -401.643 -6912.12 2700.19 103.051
193 1 27.1878 144.537 655.31 -400.831 -8247.06 5277.72 85.3531
42 1 52.3202 145.488 429.118 -409.391 -4845.61 3101.22 65.8977
195 1 140.105 144.699 -360.945 -402.294 2951.57 3411.91 60.0536
53 1 62.9349 146.689 333.586 -420.203 -3956.99 4816.99 59.6129
27 1 156.658 147.414 -509.92 -426.725 5706.5 3229.57 73.8795
126 1 171.949 150.055 -647.543 -450.493 5252.73 2925.63 87.648
112 1 7.26785 150.814 834.589 -457.328 -8574.02 4996.26 105.742
192 1 43.3362 152.213 509.974 -469.916 -5089.53 4202.52 77.0517
88 1 138.439 151.996 -345.955 -467.964 2211.7 5637.89 64.662
181 1 37.9695 152.999 558.275 -476.989 -7007.29 5289.34 81.5884
197 1 2.32965 154.502 879.033 -490.519 -10057.3 3238.1 111.848
31 1 55.1412 158.137 403.729 -523.232 -2476.57 4329.15 73.4316
185 1 76.7988 157.32 208.811 -515.876 -1487.09 5026.81 61.8372
32 1 90.0671 157.562 89.3962 -518.058 -929.485 4348.39 58.4127
54 1 172.14 159.301 -649.261 -533.712 6728.51 4308.05 93.3855
155 1 108.798 160.051 -79.1778 -540.463 1229.64 7096.31 60.6924
198 1 137.262 160.019 -335.357 -540.172 1832.48 6096.3 70.6452
122 1 191.751 161.191 -825.76 -550.715 7018.76 5781.6 110.284
79 1 81.7138 163.185 164.576 -568.667 -2923.35 4933.13 65.7781
61 1 143.831 163.672 -394.477 -573.05 4497.7 5260.55 77.3
78 1 91.198 165.21 79.2178 -586.889 -473.892 5270.94 65.8012
148 1 130.11 164.625 -270.993 -581.623 1179.43 5179.75 71.2952
163 1 142.641 167.62 -383.769 -608.577 2794.34 7217.7 79.9417
63 1 100.67 169.088 -6.0345 -621.793 1540.11 6272.12 69.0914
191 1 38.9701 171.012 549.269 -639.105 -6274.01 6169.21 93.6339
109 1 197.737 172.22 -879.636 -649.977 9849.18 7777.85 121.525
120 1 116.307 172.651 -146.763 -653.86 710.725 5118.55 74.4588
68 1 18.6455 175.251 732.19 -677.257 -6327.34 8245.58 110.821
47 1 65.8283 176.692 307.545 -690.231 -2245.11 5383.15 83.9608
56 1 106.561 177.848 -59.0528 -700.633 591.853 6985.48 78.1242
18 1 127.112 177.354 -244.011 -696.19 4026.33 6697.82 81.9682
3 1 184.624 177.49 -761.617 -697.408 6207.95 6615.08 114.743
92 1 80.8579 178.747 172.279 -708.726 -2371.08 8366.42 81.0405
57 1 139.191 178.368 -352.716 -705.315 3470.01 5516.54 87.6214
34 1 5.11572 179.945 853.958 -719.504 -9120.78 7909.93 124.073
134 1 18.1342 181.55 736.792 -733.949 -7200.99 6180.27 115.553
94 1 27.547 182.628 652.077 -743.648 -4846.67 7282.99 109.894
166 1 190.36 181.65 -813.241 -734.848 8037.83 5876.24 121.785
121 1 51.5727 182.764 435.845 -744.878 -2673.03 8819.36 95.8912
95 1 135.24 185.673 -317.164 -771.061 4445.95 6660.7 92.6382
154 1 179.924 185.585 -719.318 -770.264 8029.63 8637.68 117.101
90 1 151.793 187.112 -466.138 -784.012 3781.86 6654.79 101.346
2 1 189.884 186.173 -808.959 -775.557 9673.62 8099.92 124.519
96 1 112.012 187.776 -108.109 -789.986 1097.16 7246.89 88.5944
71 1 6.12781 190.09 844.85 -810.814 -8572.53 7124.34 130.109
139 1 142.607 189.713 -383.46 -807.415 4735.38 8943.63 99.3162
188 1 32.6882 191.22 605.806 -820.976 -6984.36 9037.88 113.366
136 1 60.6766 191.775 353.911 -825.979 -4239.64 9561.36 99.8452
173 1 121.616 191.782 -194.54 -826.034 434.176 6734.82 94.2925
147 1 171.452 190.899 -643.066 -818.093 7320.73 8836.15 115.62
172 1 186.136 191.343 -775.226 -822.09 9355.76 9070.99 125.551
114 1 52.0731 192.078 431.342 -828.698 -2856.76 6795.73 103.804
123 1 128.934 195.066 -260.407 -855.592 1072.17 10227.6 99.3715
29 1 152.9 195.803 -476.103 -862.23 6359.7 8192.74 109.438
ITEM: TIMESTEP
100
ITEM: NUMBER OF ATOMS
200
ITEM: BOX BOUNDS ff ff pp
0.0000000000000000e+00 2.0000000000000000e+02
0.0000000000000000e+00 2.0000000000000000e+02
-5.0000000000000000e-01 5.0000000000000000e-01
ITEM: ATOMS id type x y vx vy fx fy v_dist
183 1 50.7268 9.98628 440.017 800.064 -3371.16 -6811.29 102.617
24 1 17.0725 11.7835 738.636 786.578 -7666.74 -7446.95 121.075
49 1 177.748 13.2971 -692.812 772.074 6270.57 -8842.56 116.457
129 1 56.9685 14.0258 383.032 765.412 -4095.95 -6225.6 96.1419
81 1 20.5036 16.9589 709.133 738.853 -6667.84 -8062.21 114.959
64 1 59.8795 16.2195 357.946 746.836 -3023.7 -5827.28 92.8915
87 1 30.0571 17.5862 622.722 732.505 -5213.53 -6828 108.093
133 1 82.5099 17.6767 156.888 732.42 -184.421 -5643.52 84.1608
105 1 113.589 18.8696 -121.643 723.103 2151.29 -6113.25 82.2607
60 1 135.793 18.4601 -318.794 725.05 4261.72 -7469.41 89.05
100 1 129.131 19.5179 -260.318 717.914 3490.7 -8826.31 85.5921
59 1 142.989 19.6935 -382.878 715.055 4725.73 -6257.97 91.0888
75 1 125.589 20.3204 -227.583 708.718 679.263 -6502.85 83.6876
168 1 84.9288 22.0804 132.939 695.199 355.524 -7516.81 79.3638
124 1 105.901 21.4566 -50.5718 699.184 -9.58581 -7114.47 78.7648
15 1 113.684 22.5259 -121.664 690.556 1372.35 -7550.18 78.6733
84 1 43.568 23.6114 502.137 680.837 -6420.76 -7991.47 94.9726
164 1 175.226 24.3039 -670.039 675.142 8216.64 -6941.11 106.719
30 1 84.8999 25.8584 133.849 660.814 -345.807 -8085.54 75.6637
12 1 92.9878 26.2811 62.4281 657.485 -1727.91 -8205.03 74.0517
13 1 109.853 26.4146 -89.47 655.189 1510.92 -7775.98 74.2422
145 1 46.736 26.5863 473.17 653.446 -3413.94 -5559.76 90.7008
45 1 37.6983 28.7803 554.361 633.927 -4687.55 -7713.59 94.6243
48 1 59.7159 28.7435 359.185 636.008 -2750.09 -7585.85 81.8554
180 1 104.198 29.5229 -37.0201 627.635 -667.456 -4795.04 70.602
190 1 69.8439 30.3161 268.526 618.913 -1934.36 -5432.77 75.9292
44 1 23.8138 31.4954 677.498 610.288 -6325.17 -6497.27 102.456
41 1 9.04227 33.654 810.092 589.504 -9136.1 -5628.66 112.584
200 1 60.1524 34.8054 354.73 581.261 -4226.94 -7177.6 76.4079
97 1 168.151 37.6941 -608.205 553.503 5584.25 -6891.69 92.3394
138 1 119.429 39.0828 -171.848 543.964 1252.1 -6558.65 63.9404
140 1 127.125 38.5601 -242.717 545.762 917.951 -5715.35 67.1611
143 1 144.746 39.7917 -396.838 536.365 2517.19 -5885.33 75.0147
5 1 52.9394 41.0716 419.636 523.978 -3570.03 -6901 75.4139
10 1 112.229 40.376 -109.005 529.264 -235.806 -6213.11 60.8653
98 1 131.192 40.6183 -277.4 527.312 3393.37 -3775.15 67.0753
17 1 171.962 40.6028 -642.776 531.786 6538.85 -4584.99 93.3093
196 1 67.5184 42.8252 291.482 510.07 -4407.75 -5267.24 65.7572
156 1 177.243 42.4343 -687.226 512.364 6434.59 -4217.91 96.3346
186 1 21.5465 44.2991 700.384 495.863 -6641.76 -4233.81 96.2161
113 1 61.2605 44.7709 344.72 491.212 -2020.03 -3372.79 67.4611
135 1 32.6685 45.6308 598.828 484.032 -7117.23 -5581.45 86.5421
74 1 81.6567 46.0436 163.889 480.08 -1915.62 -5315.49 56.9892
58 1 112.231 45.8375 -110.052 483.037 1424.47 -3798.6 55.5263
86 1 115.87 47.0066 -141.01 473.909 637.109 -3786.74 55.3188
35 1 170.65 48.6178 -627.774 457.626 7661.2 -3262.15 87.3587
14 1 87.6213 50.4544 109.405 440.503 341.36 -2982.22 51.0685
111 1 113.53 51.6584 -119.457 431.362 -61.941 -3635.86 50.1993
131 1 96.6588 52.2296 29.4906 423.899 -1384.52 -2939.99 47.8871
161 1 165.709 52.6429 -584.999 422.572 5829.66 -3270.03 80.9963
69 1 25.955 53.8027 659.557 413.611 -6280.39 -5699.75 87.2746
179 1 44.5078 53.4066 494.735 414.537 -4691.9 -3892.01 72.4592
118 1 77.5888 54.6638 198.999 405.257 -2775.21 -5434.9 50.573
169 1 73.336 56.8951 239.316 384.588 -2334.78 -3476.51 50.6854
149 1 61.5356 57.4104 342.951 378.499 -4016.27 -4149.68 57.388
194 1 95.9116 60.6786 35.209 351.048 -167.378 -2537.18 39.5334
158 1 162.918 61.0516 -560.296 346.8 4966.47 -3464.08 73.9973
22 1 75.1049 62.9028 221.6 330.292 -2874.48 -3798.26 44.6762
36 1 94.3876 63.9812 50.1631 320.156 944.744 -1977.14 36.4535
20 1 47.1726 64.8047 469.639 314.306 -4192.04 -2750.46 63.4779
99 1 186.611 64.9962 -770.271 310.883 7746.85 -4200.46 93.4169
89 1 83.5952 65.7842 145.338 303.917 -3162 -3615.19 37.9452
46 1 141.016 66.0628 -365.659 301.788 4605.64 -4103.63 53.2359
115 1 76.3437 67.7586 210.804 287.897 -2408 -2098.43 39.9891
8 1 118.044 68.0595 -159.044 283.101 66.7551 -2471.12 36.6851
199 1 168.308 68.7509 -605.962 277.427 5771.92 -1779.47 75.1168
1 1 175.094 69.7862 -669.671 267.968 5562.48 -3703.86 80.944
11 1 180.905 69.8437 -720.127 267.955 7841.93 -2970.75 86.342
28 1 131.597 70.3014 -281.165 264.508 2892.95 -1673.37 43.3631
167 1 142.269 69.8726 -376.835 266.71 4053.89 -3740.79 51.9067
70 1 163.132 71.8008 -563.367 251.316 6859.18 -3885.38 69.1435
128 1 68.9453 72.1327 276.957 248.793 -2459.24 -3750.03 41.7251
162 1 188.533 72.8273 -788.903 240.534 9454.96 -1845.98 92.6096
127 1 90.0282 73.6653 88.3617 234.543 -1313.67 -2557.49 28.1595
177 1 169.409 73.4143 -620.131 236.868 4884.55 -2323.25 74.3264
187 1 102.68 75.2829 -24.3912 219.103 -530.278 -3306.36 24.862
144 1 86.8723 77.2307 118.238 205.087 -873.893 -3624.43 26.2826
132 1 27.4837 80.2315 645.969 173.8 -5171.86 -1319.19 75.1626
72 1 154.726 80.1133 -487.827 175.84 6118.47 -743.264 58.2273
16 1 115.309 81.2605 -135.941 166.481 1084.5 -3331.92 24.1976
141 1 183.792 83.5335 -747.048 147.357 7986.09 -3108.37 85.3947
67 1 39.3435 83.9251 538.919 144.585 -5990.18 -442.152 62.7504
103 1 86.7884 83.9234 117.13 143.347 -1576.41 -2378.96 20.8087
119 1 74.0533 84.7594 229.792 135.594 -922.728 -2909.7 30.0917
175 1 9.30716 89.2988 806.862 95.1038 -8608.99 -1501.63 91.322
77 1 83.746 89.7269 145.432 91.5284 -1646.67 394.115 19.2283
151 1 24.7766 90.865 670.107 80.3329 -7650.76 -1158.48 75.776
23 1 33.6432 90.6494 591.246 83.65 -5335.9 -2144.25 67.0123
137 1 183.901 90.8441 -747.081 82.339 7452.03 -219.356 84.3991
25 1 125.009 91.8596 -221.854 72.636 3602.63 536.977 26.3002
184 1 98.678 92.7637 10.8895 64.6548 1044.95 -232.201 7.35611
176 1 154.873 93.2569 -488.235 59.9776 3475.73 116.124 55.2857
93 1 70.6156 97.4825 262.983 23.1495 -1731.76 -1346.63 29.4921
178 1 78.52 97.6786 192.996 21.2825 -1772.98 146.729 21.6051
62 1 9.17091 99.6485 809.582 3.53893 -8924.71 1406.85 90.8298
7 1 119.117 99.775 -170.191 0.689943 390.003 459.93 19.1185
39 1 131.855 100.095 -284.5 -0.222372 2962.27 -1342.82 31.8554
153 1 26.0488 101.241 659.467 -12.2951 -5415.7 -504.5 73.9616
146 1 67.2904 100.979 292.259 -9.01558 -3195.49 842.094 32.7243
182 1 116.499 103.026 -146.075 -26.0665 2519.43 -1305.28 16.7745
165 1 152.045 103.193 -465.003 -28.655 5737.53 -1222.13 52.1425
9 1 31.6442 105.749 610.187 -49.5798 -6901.26 1313.69 68.5971
80 1 47.7693 105.198 464.948 -46.8839 -5097.16 -256.599 52.4888
6 1 64.7519 105.597 315.484 -49.6062 -2215.25 1964.55 35.6898
157 1 79.6102 105.568 183.274 -49.5718 -2872.33 -441.029 21.1363
82 1 103.408 106.632 -29.7002 -58.2204 624.19 1299.46 7.45623
21 1 153.181 107.876 -472.386 -68.6386 6027.8 -691.943 53.761
116 1 11.0143 109.776 793.365 -88.4816 -9245.04 -316.813 89.521
104 1 182.627 111.842 -736.84 -107.697 6599.54 1514.96 83.4711
51 1 103.741 112.894 -32.8971 -115.278 1225.18 2467.05 13.4262
189 1 112.583 112.568 -112.016 -110.745 688.212 2505.55 17.7846
110 1 37.6684 113.251 556.022 -118.554 -6980.32 2286.75 63.7247
174 1 9.86665 116.385 803.391 -144.382 -9296.21 2279.83 91.6105
159 1 51.6433 115.954 431.093 -141.43 -2722.63 502.624 50.9206
83 1 94.4673 116.109 47.8776 -145.179 -492.388 -186.347 17.033
43 1 179.757 119.481 -709.397 -172.852 6177.93 2095.79 82.1021
73 1 183.743 118.907 -745.393 -169.199 6972.96 3220.77 85.8507
102 1 77.2266 120.587 202.379 -183.011 -1785.38 164.004 30.6994
142 1 67.499 121.508 290.025 -191.412 -3663.77 590.401 38.9731
108 1 29.7618 122.549 625.294 -200.156 -6067.39 1837.89 73.7689
38 1 104.016 122.696 -35.8111 -202.073 367.864 1652.45 23.0485
101 1 87.8627 123.265 107.812 -207.389 -344.27 846.481 26.2409
160 1 144.414 123.41 -395.666 -207.722 3048.12 2191.32 50.2057
55 1 84.3227 123.995 139.987 -212.683 -2115.94 1216.99 28.6627
37 1 158.308 124.043 -519.403 -216.258 4876.49 3128.06 63.0707
52 1 112.393 125.714 -110.304 -230.982 1486.84 1079.59 28.5446
152 1 175.534 125.721 -674.691 -228.965 8353.42 2799.5 79.7934
130 1 184.775 125.715 -754.563 -230.178 6773.82 2435.88 88.5893
50 1 168.68 126.628 -611.613 -236.923 5153.55 1491.6 73.6612
171 1 48.5552 128.497 459.455 -253.985 -4459.16 3660.06 58.8105
65 1 107.156 132.927 -63.6066 -293.578 -660.905 2716.14 33.6952
117 1 39.0621 133.398 543.774 -296.441 -6246.14 2097.97 69.4901
170 1 120.926 133.885 -186.858 -300.356 2042.25 4297.19 39.8261
26 1 22.9403 136.331 685.822 -324.523 -7693.86 2589.63 85.1948
4 1 27.9288 135.67 642.158 -317.468 -6030.73 1713.16 80.4151
76 1 51.588 135.761 432.424 -318.042 -4049.12 2503.8 60.1878
33 1 71.1278 136.372 256.895 -322.006 -1619.27 4033.08 46.4385
125 1 92.8303 136.186 63.898 -323.169 966.037 4944 36.8895
66 1 37.6748 139.621 554.157 -351.791 -6930.39 4399.83 73.8531
19 1 101.976 139.045 -18.8064 -345.868 -917.877 4017 39.0953
85 1 151.581 139.029 -458.304 -347.548 4934.29 3844.61 64.6827
150 1 9.33376 139.671 806.785 -354.007 -9349.99 4737.04 98.9655
106 1 70.9955 140.234 256.201 -356.64 -2286.79 1900.83 49.5984
40 1 92.107 140.14 68.9392 -357.31 -2132.01 3490.84 40.909
107 1 168.744 140.622 -612.199 -362.761 6021.8 3472.94 79.8493
91 1 15.0719 140.801 756.557 -364.263 -6467.08 4961.75 94.2204
193 1 33.4304 140.722 595.282 -362.219 -5464.7 3826.25 78.0369
42 1 56.3977 141.589 388.074 -370.883 -3570.5 2790.78 60.2564
195 1 136.679 140.87 -324.842 -364.271 4246.28 3533.89 54.9155
53 1 66.1155 142.686 303.035 -380.722 -2668.14 3072.31 54.4997
27 1 151.813 143.349 -460.096 -387.317 3369.02 3734.05 67.5549
126 1 165.794 145.767 -584.042 -408.402 6206.67 2904.13 80.1462
112 1 15.2033 146.469 753.719 -413.429 -6529.07 3221.19 96.6948
192 1 48.1881 147.751 460.283 -424.044 -4915.77 4733.92 70.4598
88 1 135.139 147.535 -314.142 -425.504 2862.76 2794 59.1123
181 1 43.2865 148.464 506.019 -430.624 -4044.06 4386.48 74.6002
197 1 10.6933 149.841 795.276 -443.338 -6452.88 4708.8 102.273
31 1 58.9845 153.16 365.455 -473.231 -2278.09 4645.49 67.1434
185 1 78.7776 152.416 187.855 -466.747 -2430.34 4741.85 56.5493
32 1 90.9127 152.626 79.675 -469.364 -1921.37 6308.2 53.4052
54 1 165.965 154.23 -586.987 -481.223 4941.59 4682.14 85.3952
155 1 108.05 154.908 -70.454 -489.148 1244.25 6542.68 55.4948
198 1 134.066 154.887 -303.944 -487.525 3468.7 3951.51 64.5992
122 1 183.893 155.95 -747.676 -498.361 6529.63 5558.45 100.839
79 1 83.2892 157.779 150.973 -514.12 132.136 6561.66 60.1467
61 1 140.087 158.222 -355.865 -517.285 3830.28 5362.08 70.6879
78 1 91.9571 159.622 72.4246 -531.501 -1698.58 6463.01 60.1622
148 1 127.524 159.082 -247.051 -527.374 1599.52 3929 65.1784
163 1 138.984 161.823 -347.351 -551.634 2571.3 6481.46 73.0878
63 1 100.619 163.174 -4.85775 -562.089 1143.13 4898.38 63.1775
191 1 44.2004 164.931 497.815 -577.978 -4857.45 5253.97 85.6136
109 1 189.374 166.036 -795.259 -588.011 6597.14 5198.25 111.124
120 1 114.908 166.429 -133.094 -592.213 2626.62 6187.69 68.0816
68 1 25.6138 168.799 662.688 -612.921 -8157.98 5161.93 101.324
47 1 68.7493 170.112 278 -626.1 -4412.23 6623.52 76.7613
56 1 105.999 171.181 -54.491 -634.761 -1045.26 5419.54 71.4334
18 1 124.788 170.724 -221.095 -630.642 3406.33 5767.76 74.9417
3 1 177.371 170.854 -689.925 -630.789 5932.41 7289.75 104.912
92 1 82.4976 171.999 156.315 -642.263 -1149.59 7105.25 74.0961
57 1 135.836 171.655 -318.96 -637.408 3434.61 5841.7 80.1166
34 1 13.2474 173.093 773.496 -652.015 -7191.43 6178.74 113.44
134 1 25.1421 174.564 665.293 -665.65 -5519.28 6759.72 105.657
94 1 33.7475 175.541 589.485 -674.466 -4817.02 6679.72 100.478
166 1 182.612 174.66 -737.04 -663.336 5838.77 5037.71 111.35
121 1 55.7123 175.683 393.359 -671.949 -5096.13 8279.06 87.6885
95 1 132.219 178.335 -287.527 -697.589 3462.77 7157 84.7018
154 1 173.074 178.265 -651.405 -694.845 7390.93 6269.76 107.076
90 1 147.355 179.646 -421.807 -710.072 2605.16 8605.23 92.6603
2 1 182.194 178.789 -730.713 -702.63 7156.76 5314.64 113.858
96 1 110.986 180.254 -97.3166 -715.052 190.439 6886.31 81.0027
71 1 14.1778 182.366 765.838 -735.13 -6446.62 7646.69 118.952
139 1 138.96 182.029 -346.941 -730.646 4186.92 8111.23 90.8113
188 1 38.4466 183.414 547.882 -741.434 -4982.86 5786.81 103.666
136 1 64.0462 183.911 320.869 -747.789 -1761.81 8762.82 91.2892
173 1 119.76 183.915 -176.758 -748.132 1249.97 8004.46 86.2097
147 1 165.331 183.114 -582.9 -741.521 6413.2 8132.71 105.717
172 1 178.76 183.522 -700.498 -743.762 7373.75 6491.88 114.8
114 1 56.1813 184.189 390.356 -749.949 -5083.69 7314.47 94.9094
123 1 126.457 186.934 -235.027 -772.718 1782.99 8843.49 90.8706
29 1 148.373 187.599 -430.677 -780.198 5998.18 6600.9 100.068
ITEM: TIMESTEP
200
ITEM: NUMBER OF ATOMS
200
ITEM: BOX BOUNDS ff ff pp
0.0000000000000000e+00 2.0000000000000000e+02
0.0000000000000000e+00 2.0000000000000000e+02
-5.0000000000000000e-01 5.0000000000000000e-01
ITEM: ATOMS id type x y vx vy fx fy v_dist
183 1 54.9117 17.5962 397.318 723.575 -5001.72 -7977.53 93.9327
24 1 24.0994 19.2727 667.815 712.33 -5228.3 -7255.62 110.805
49 1 171.152 20.639 -627.267 698.611 6200.11 -7118.51 106.587
129 1 60.613 21.3099 346.197 691.96 -1856.25 -8276.01 87.997
81 1 27.2556 23.9849 642.444 667.436 -6986.87 -6020.09 105.214
64 1 63.299 23.3244 325.746 675.455 -4381.07 -8264.99 85.0065
87 1 35.9802 24.5625 563.073 663.698 -5312.16 -8178.27 98.9411
133 1 83.9932 24.6476 140.452 663.013 264.637 -6616.96 77.0338
105 1 112.432 25.7419 -109.27 651.992 114.105 -8224.47 75.2916
60 1 132.762 25.3584 -288.092 655.847 3687.51 -7823.37 81.5153
100 1 126.657 26.3413 -234.415 649.354 1554.21 -7079.71 78.3338
59 1 139.355 26.4946 -345.034 646.288 2703.56 -6884.77 83.378
75 1 123.419 27.0653 -206.389 641.083 1372.32 -7151.72 76.6023
168 1 86.2014 28.697 121.124 629.059 -2088.35 -7048.35 72.6259
124 1 105.413 28.1146 -46.4858 633.42 -1011.73 -4622.41 72.089
15 1 112.52 29.0884 -110.777 624.212 990.037 -5553.02 72.0085
84 1 48.3463 30.1036 454.174 617.789 -3454.87 -7114.69 86.9115
164 1 168.855 30.7212 -605.487 609.631 4750.35 -5434.27 97.6755
30 1 86.1781 32.1518 121.295 598.717 -194.118 -6899.76 69.2418
12 1 93.5772 32.5337 56.1601 594.718 -599.781 -4329.23 67.7713
13 1 109.008 32.6478 -80.0882 592.804 -345.746 -5262.83 67.9519
145 1 51.238 32.8007 428.193 589.665 -4145.47 -6189.59 83.027
45 1 42.9675 34.8142 500.496 573.353 -5689.45 -6741.98 86.6135
48 1 63.1363 34.7999 324.803 575.6 -3827.61 -4407.7 74.8998
180 1 103.853 35.4955 -32.4688 568.999 1120.4 -4496.45 64.6195
190 1 72.3978 36.1988 243.21 559.021 -2139.42 -5821.51 69.516
44 1 30.2573 37.3017 612.779 552.283 -7062.66 -6797.14 93.7823
41 1 16.7662 39.2634 735.436 533.115 -5918.19 -6382.45 103.038
200 1 63.5221 40.3308 320.362 524.197 -3932.86 -4811.41 69.9361
97 1 162.368 42.9667 -549.7 500.753 4549.87 -4290.88 84.5139
138 1 117.801 44.259 -154.132 492.227 1338.33 -4519.56 58.5143
140 1 124.821 43.7427 -219.053 491.716 2899.1 -4223.7 61.4894
143 1 140.978 44.8965 -357.845 485.358 2402.27 -6197.53 68.67
5 1 56.9362 46.0657 380.956 475.702 -3391.66 -5079.23 69.0174
10 1 111.2 45.4115 -96.8772 478.994 670.023 -4285.23 55.7256
98 1 128.554 45.6385 -250.468 476.986 1837.56 -4600.83 61.4046
17 1 165.848 45.6678 -581.027 482.117 6801.92 -4124.47 85.3697
196 1 70.2875 47.6778 262.555 461.815 -2359.98 -5614.72 60.1701
156 1 170.703 47.318 -621.353 465.158 6298.08 -3158.23 88.172
186 1 28.2186 49.0266 634.46 449.107 -6648.19 -5304.62 88.0389
113 1 64.5467 49.4437 311.478 444.011 -1997.92 -3476.02 61.7485
135 1 38.3666 50.2333 541.316 437.023 -6722.82 -3481.49 79.2174
74 1 83.213 50.6141 148.222 434.98 211.092 -4078.56 52.161
58 1 111.178 50.4371 -99.6452 437.926 2000.56 -4201.63 50.8078
86 1 114.518 51.5206 -129.142 429.429 2260.76 -3812.94 50.6067
35 1 164.683 52.9792 -567.916 415.741 4650.88 -3417.35 79.9678
14 1 88.6779 54.6507 100.545 398.04 -1654.83 -5678.52 46.7413
111 1 112.397 55.7714 -106.548 391.896 1024.92 -3516.72 45.9333
131 1 96.9361 56.2668 26.398 383.866 512.751 -2709.23 43.8403
161 1 160.147 56.6651 -527.826 383.28 6240.02 -2877.41 74.1323
69 1 32.221 57.7384 596.012 374.13 -4781.4 -3768.65 79.8751
179 1 49.2121 57.3471 447.425 374.144 -5150.64 -5334.27 66.3225
118 1 79.4813 58.5238 179.913 366.395 -1919.11 -5021.02 46.2741
169 1 75.6145 60.5556 216.829 348.851 -598.302 -5115.97 46.3736
149 1 64.7947 61.0052 308.756 341.192 -2933.06 -4496.87 52.5358
194 1 96.2482 64.0209 32.7608 317.779 69.8857 -3192.8 36.1742
158 1 157.591 64.3614 -506.079 314.873 4956.13 -4222.5 67.7264
22 1 77.2173 66.0509 201.225 299.233 -610.353 -4303.06 40.8852
36 1 94.8671 67.0311 44.5808 290.655 -1824.42 -2830.66 33.3661
20 1 51.638 67.7944 424.149 284.215 -4227.52 -3295.37 58.1041
99 1 179.285 67.9562 -696.636 281.144 7037.61 -3988.61 85.5157
89 1 84.9774 68.6855 132.011 276.562 -1189.28 -1912.74 34.7315
46 1 137.535 68.9427 -330.528 274.005 2769.25 -1749.21 48.718
115 1 78.3445 70.4986 189.543 260.785 -1780.24 -3115.07 36.5964
8 1 116.528 70.7595 -144.52 257.278 1909.57 -3425.47 33.5885
199 1 162.543 71.3925 -548.254 251.799 4447.59 -1045.88 68.7751